/*--------------------------------*- C++ -*----------------------------------*\
  =========                 |
  \\      /  F ield         | OpenFOAM: The Open Source CFD Toolbox
   \\    /   O peration     | Website:  https://openfoam.org
    \\  /    A nd           | Version:  7
     \\/     M anipulation  |
\*---------------------------------------------------------------------------*/
FoamFile
{
    version     2.0;
    format      ascii;
    class       volScalarField;
    location    "0";
    object      k;
}
// * * * * * * * * * * * * * * * * * * * * * * * * * * * * * * * * * * * * * //

dimensions      [0 2 -2 0 0 0 0];

internalField   nonuniform List<scalar> 
1056
(
3.36645e-05
3.40813e-05
3.46697e-05
3.54852e-05
9.27321e-05
9.6896e-05
0.000201365
0.000208139
0.00021741
0.000322228
0.000331707
0.000406702
0.000460561
0.00046794
0.000497011
0.000500433
0.00049715
0.000467056
0.000453455
0.000407509
0.000371736
0.000363075
0.000341582
0.000322637
0.00029933
0.000289701
0.000259949
0.000224907
0.000190276
0.00016126
0.000151891
0.000133901
3.06545e-05
3.07309e-05
3.08061e-05
3.08734e-05
0.000100555
0.000101579
0.000219233
0.000221313
0.000223512
0.000332591
0.000335031
0.000413773
0.000468236
0.000470709
0.000498442
0.000499397
0.000493447
0.000458568
0.000451264
0.000404461
0.00036849
0.000362947
0.000340762
0.000321322
0.00029724
0.000289455
0.000258876
0.000224229
0.000189283
0.000159659
0.000151753
0.000134067
1.97094e-05
1.56697e-05
1.92828e-05
3.62997e-05
8.24623e-05
9.45188e-05
0.000186293
0.000224029
0.000242135
0.000329595
0.000344117
0.000409198
0.000449092
0.000465858
0.000489768
0.000492695
0.000495086
0.000459967
0.000447113
0.000400623
0.000367834
0.000360534
0.000339904
0.000320475
0.000295902
0.000287373
0.000257574
0.000222032
0.000187832
0.000158463
0.000151174
0.000133216
3.10507e-05
3.13196e-05
3.16346e-05
3.19994e-05
9.97977e-05
0.000100955
0.000218247
0.000219801
0.000221971
0.000326103
0.000328382
0.000400149
0.00045007
0.000451775
0.000478216
0.00047908
0.000477711
0.00044946
0.000443666
0.000401396
0.000366739
0.000361188
0.00033829
0.0003177
0.000292892
0.000285698
0.000254963
0.000220741
0.000186627
0.000157329
0.000150633
0.000133555
3.69392e-05
3.7443e-05
3.79867e-05
3.85237e-05
0.00010821
0.00011148
0.000222112
0.000227418
0.000232779
0.000331075
0.000336559
0.000403667
0.000449175
0.000453732
0.000476934
0.000478494
0.000474459
0.000446866
0.000437154
0.000397702
0.000364869
0.000357882
0.000336635
0.000316364
0.000291463
0.000283279
0.000253622
0.00021972
0.000185864
0.00015713
0.000150361
0.000133349
3.42864e-05
3.48945e-05
3.57334e-05
3.6873e-05
9.46667e-05
9.94266e-05
0.000202473
0.000209493
0.000218972
0.000313264
0.000322343
0.000386882
0.000431103
0.00043709
0.000460054
0.00046263
0.000461568
0.000439088
0.000429698
0.000392886
0.000361973
0.000340264
0.000333705
0.000313237
0.000288765
0.000280545
0.00025114
0.000217481
0.000184565
0.000156582
0.00014974
0.000133121
3.04609e-05
3.05108e-05
3.05548e-05
3.05872e-05
0.000102286
0.000102988
0.000218662
0.000220007
0.000221425
0.000320551
0.000322042
0.000390583
0.000435821
0.000437131
0.000459775
0.000460261
0.000457475
0.000431621
0.000427265
0.000389938
0.000358771
0.000354528
0.000332322
0.000311452
0.0002865
0.000279919
0.000249909
0.000216885
0.000183863
0.00015563
0.000149618
0.000133418
2.70054e-05
2.87173e-05
3.42628e-05
7.69937e-05
8.96256e-05
0.000104861
0.000188881
0.000209835
0.000230982
0.000304476
0.000320502
0.000373506
0.000410554
0.000421349
0.000442729
0.00044477
0.000446825
0.000425357
0.000416296
0.000384288
0.000355802
0.000335898
0.00032904
0.000308445
0.000284174
0.000275943
0.000247813
0.000214705
0.000182758
0.000155735
0.000149056
0.000132834
2.31353e-05
2.33105e-05
2.3509e-05
2.37295e-05
8.14539e-05
8.25611e-05
0.000180216
0.000181996
0.000184167
0.000275148
0.000277286
0.000338893
0.000381984
0.000383885
0.000410173
0.000411638
0.000419027
0.000407524
0.000404428
0.00037867
0.00035184
0.000329647
0.000325155
0.000304726
0.000280977
0.00027412
0.000245651
0.000213831
0.000181993
0.000154903
0.000148795
0.000133152
2.49328e-05
2.52095e-05
2.55221e-05
7.87154e-05
8.04575e-05
8.25133e-05
0.000175537
0.00017897
0.000182793
0.000271556
0.000275291
0.000335349
0.000376952
0.000380375
0.000405969
0.000408385
0.000415702
0.000405829
0.000401674
0.000377424
0.000351132
0.000329471
0.000324161
0.000303987
0.000280461
0.000273058
0.000245144
0.000213436
0.000181763
0.000154974
0.00014872
0.000133022
1.14408e-05
1.18021e-05
1.22663e-05
4.68163e-05
5.00684e-05
5.4304e-05
0.0001249
0.000133614
0.000217285
0.000227489
0.000293748
0.000303461
0.00035041
0.000357737
0.000386036
0.000390212
0.000401207
0.000396689
0.000392506
0.000373599
0.000349161
0.000328486
0.000322238
0.000302137
0.000279228
0.000271602
0.000244666
0.000212973
0.000181596
0.00015512
0.000148715
0.000132807
8.81601e-06
8.87601e-06
8.94539e-06
9.02487e-06
4.32814e-05
4.38015e-05
4.44217e-05
0.00011712
0.000118655
0.00021185
0.000213934
0.00028379
0.000286354
0.000341633
0.000378632
0.000380239
0.000397011
0.000394337
0.000392987
0.0003753
0.000350422
0.000346555
0.00032331
0.000302475
0.000279174
0.000273449
0.00024529
0.000213773
0.000181911
0.000154706
0.000148931
0.000133199
2.00415e-06
2.05936e-06
2.19613e-06
1.08802e-05
1.21548e-05
1.42137e-05
4.70555e-05
5.47151e-05
0.000106186
0.00012281
0.000184703
0.000199351
0.000253611
0.00027306
0.000324985
0.000338552
0.000373179
0.000384828
0.00038512
0.000378194
0.000356933
0.000335106
0.000326033
0.000303537
0.000281207
0.000273632
0.000246932
0.000214602
0.000182954
0.000155983
0.000149319
0.000132824
3.5302e-07
3.54681e-07
3.56208e-07
3.57397e-07
3.47935e-06
3.54799e-06
2.12606e-05
2.19113e-05
2.25751e-05
7.53221e-05
7.8256e-05
0.000141135
0.000206069
0.000210718
0.000264368
0.000271048
0.000317499
0.000351524
0.00035682
0.000369582
0.000360727
0.000341076
0.00033447
0.000309798
0.000284683
0.000277434
0.000249903
0.000217888
0.00018476
0.000156537
0.000150196
0.000133375
3.15319e-07
3.18615e-07
3.22635e-07
3.27565e-07
2.77161e-06
2.83494e-06
1.66884e-05
1.70955e-05
1.77649e-05
5.99669e-05
6.3015e-05
0.000122871
0.000191977
0.000196061
0.000249987
0.000255916
0.000301325
0.000340107
0.000348115
0.000367559
0.000363013
0.000346318
0.00033878
0.000312862
0.000287455
0.000280049
0.000251919
0.000219262
0.000185963
0.000157387
0.000150552
0.000133371
3.15086e-07
3.35529e-07
3.61035e-07
3.86664e-07
2.17979e-06
2.52761e-06
9.43419e-06
1.10101e-05
1.31248e-05
3.63258e-05
4.44337e-05
9.137e-05
0.000150743
0.000167041
0.000222756
0.000233712
0.000271215
0.000304447
0.000316866
0.00034531
0.000357871
0.000350151
0.000345634
0.000321164
0.000293386
0.000284864
0.000256456
0.00022268
0.000188092
0.000158738
0.000151603
0.000133345
3.96431e-07
3.94647e-07
3.92353e-07
3.89428e-07
2.87437e-06
2.87314e-06
1.20824e-05
1.21244e-05
1.21424e-05
3.27331e-05
3.29282e-05
7.29719e-05
0.000136465
0.000139923
0.000208945
0.000213551
0.000267652
0.000302672
0.000304732
0.000332385
0.000346304
0.000348481
0.000346605
0.000327529
0.000300216
0.000292891
0.000261189
0.00022649
0.000190572
0.000159379
0.000152871
0.000134006
4.31656e-07
4.36192e-07
4.47443e-07
4.73328e-07
2.37107e-06
2.66195e-06
9.37751e-06
1.05431e-05
1.23588e-05
2.83558e-05
3.27392e-05
6.19736e-05
0.000105284
0.000121204
0.00018361
0.000205843
0.000264911
0.000296835
0.000303118
0.000324058
0.000342255
0.000345899
0.000347723
0.000332741
0.000304605
0.000295109
0.000263891
0.000228087
0.000191985
0.000160928
0.000153204
0.000133627
8.06324e-07
8.12619e-07
8.1848e-07
8.2297e-07
5.20776e-06
5.33943e-06
1.81132e-05
1.86744e-05
1.91955e-05
4.22736e-05
4.35399e-05
7.49921e-05
0.000118336
0.000123921
0.000190054
0.000202154
0.000268042
0.000312603
0.000315899
0.000330033
0.000339355
0.000341764
0.000344011
0.000334934
0.000309822
0.000300915
0.000268805
0.000232252
0.000194366
0.000161858
0.000154366
0.000134142
7.1615e-07
7.23902e-07
7.33337e-07
7.44821e-07
4.614e-06
4.71103e-06
1.74609e-05
1.77012e-05
1.8131e-05
4.13529e-05
4.22816e-05
7.2814e-05
0.000114806
0.000117736
0.000179318
0.000188202
0.000257562
0.000312933
0.00031729
0.000331273
0.000338078
0.000340307
0.000343652
0.000336003
0.00031281
0.000304278
0.000271038
0.000233705
0.000195581
0.000162594
0.000154744
0.00013421
8.4375e-05
1.55447e-06
1.71437e-06
1.98359e-06
8.28846e-06
9.91971e-06
1.25701e-05
3.14582e-05
3.75416e-05
6.56781e-05
7.31614e-05
0.00010427
0.000113916
0.000147634
0.000194002
0.0002101
0.000274086
0.000332298
0.000342406
0.000350966
0.000345175
0.000344768
0.000343321
0.000337903
0.000316219
0.000307501
0.000275329
0.000236716
0.000197418
0.000163881
0.000155608
0.000134007
3.16397e-06
3.17184e-06
3.18011e-06
1.75383e-05
1.76804e-05
1.78436e-05
5.514e-05
5.56463e-05
5.62344e-05
0.00010787
0.000108849
0.000159278
0.000208133
0.000209599
0.000262054
0.000264863
0.000326023
0.000374679
0.000377141
0.000376049
0.000358186
0.000346
0.000344631
0.00033643
0.000316655
0.000310355
0.000277136
0.000238418
0.000198461
0.000163796
0.000156213
0.00013453
8.4375e-05
3.75446e-06
3.89722e-06
4.11571e-06
1.73363e-05
1.90378e-05
2.14579e-05
5.58999e-05
6.18343e-05
0.000108951
0.000117335
0.000164581
0.00017424
0.000219163
0.000266036
0.000278946
0.000332521
0.00037646
0.000385423
0.00038442
0.000361034
0.000355955
0.00034477
0.000337167
0.000317825
0.000309825
0.000277855
0.000238734
0.000198844
0.000164625
0.00015622
0.00013412
8.16451e-06
8.27914e-06
8.41825e-06
8.58313e-06
3.4717e-05
3.59839e-05
9.25381e-05
9.54283e-05
9.91432e-05
0.000169391
0.000174513
0.00023812
0.000294241
0.000300709
0.000352343
0.000360751
0.000403818
0.000427877
0.000428298
0.000408883
0.000373676
0.000365561
0.000346613
0.000335561
0.000316568
0.000309194
0.000277442
0.000238756
0.000198856
0.000164434
0.000156229
0.000134275
7.97153e-06
8.03367e-06
8.10259e-06
8.17533e-06
3.75301e-05
3.82691e-05
0.00010193
0.000103795
0.000105968
0.000180394
0.000183542
0.000250147
0.000308643
0.000313355
0.000366657
0.000372889
0.000414574
0.000433724
0.0004339
0.000409634
0.000373437
0.000366594
0.00034662
0.000334927
0.000315752
0.00030877
0.00027691
0.000238466
0.000198594
0.000164073
0.000156163
0.000134384
1.26327e-05
1.21872e-05
1.27354e-05
1.63137e-05
4.60469e-05
5.47044e-05
0.000115574
0.000140775
0.000158852
0.000235732
0.000252424
0.000318231
0.000368355
0.000389815
0.000435438
0.000447054
0.000476001
0.00047104
0.000464549
0.000420923
0.000376428
0.000367666
0.000346267
0.000334009
0.000314091
0.000306139
0.000275424
0.00023672
0.000197752
0.000164037
0.0001557
0.000133863
2.14142e-05
2.15972e-05
2.18123e-05
2.20646e-05
7.74079e-05
7.83645e-05
0.00018368
0.000185236
0.000187327
0.000291561
0.000294177
0.000375289
0.000438788
0.0004417
0.000485151
0.000487716
0.000499927
0.000479353
0.00047364
0.000421705
0.000375606
0.000369571
0.00034607
0.000331396
0.00031102
0.000304559
0.000272915
0.000235374
0.000196591
0.000162774
0.000155171
0.000134263
2.70436e-05
2.78279e-05
2.87894e-05
2.9853e-05
8.61456e-05
9.17966e-05
0.00018783
0.000197219
0.000207386
0.000303041
0.000313957
0.00038782
0.000445319
0.000455232
0.00049272
0.000498169
0.000505276
0.000480699
0.000467807
0.000417486
0.000374238
0.000365971
0.000344946
0.000330804
0.000310123
0.00030215
0.000271711
0.000234301
0.000195911
0.00016281
0.000154852
0.000133909
3.26253e-05
3.31048e-05
3.37209e-05
3.45048e-05
9.66891e-05
0.000100113
0.000213709
0.000219009
0.000226528
0.000335575
0.000343424
0.000421961
0.000478904
0.000485057
0.000516136
0.000519072
0.000516351
0.000482415
0.000469474
0.000414887
0.000373368
0.000365417
0.000343953
0.00032863
0.000307552
0.000299849
0.00026903
0.000232079
0.000194572
0.000162006
0.000154139
0.000133894
3.18915e-05
3.20156e-05
3.21282e-05
3.22218e-05
0.000106625
0.00010792
0.000231986
0.000234565
0.0002372
0.000348774
0.000351724
0.000432496
0.000488298
0.000491343
0.000519519
0.000520681
0.000513428
0.000473335
0.000464356
0.000410181
0.000370097
0.000364279
0.00034313
0.000327376
0.000305637
0.000298553
0.000267579
0.000231216
0.000193745
0.000161161
0.000153914
0.000134081
2.35878e-05
1.81486e-05
1.95385e-05
3.96052e-05
9.33335e-05
0.000105841
0.000204795
0.000250674
0.000267471
0.000362557
0.000376766
0.000446362
0.000485186
0.000503357
0.00052296
0.000524503
0.000519602
0.000473131
0.000457023
0.000400693
0.000367947
0.000348193
0.000341708
0.000326087
0.000303578
0.000295319
0.000265258
0.000228367
0.00019228
0.000160886
0.000153152
0.000133518
3.33238e-05
3.35878e-05
3.39039e-05
3.42737e-05
0.000106125
0.000107318
0.000232195
0.000233876
0.000236174
0.000350617
0.000353149
0.000433673
0.00048842
0.000490328
0.000515938
0.000516497
0.000506684
0.000465916
0.000458135
0.000406698
0.000369327
0.000363685
0.000341967
0.00032439
0.000301685
0.000293996
0.000263196
0.000227762
0.000191868
0.000161143
0.000152851
0.000134221
4.07121e-05
4.15175e-05
4.24698e-05
4.35173e-05
0.000112631
0.000117942
0.000230083
0.000238527
0.000247402
0.000353169
0.00036232
0.000435878
0.000485574
0.000492221
0.000514827
0.000515893
0.000503934
0.000465435
0.000450477
0.000403698
0.000368484
0.000346991
0.000340942
0.000323682
0.000300955
0.000291236
0.000262033
0.000226811
0.000191547
0.000161796
0.000152655
0.000134045
)
;

boundaryField
{
    back
    {
        type            empty;
    }
    bottom
    {
        type            kqRWallFunction;
        value           nonuniform List<scalar> 
33
(
3.08239e-06
3.08239e-06
3.39649e-06
3.72448e-06
3.72448e-06
3.60552e-06
3.60552e-06
3.37706e-06
2.35036e-06
2.35036e-06
9.31739e-07
9.31739e-07
1.67689e-07
2.37793e-08
2.37793e-08
2.3485e-08
2.3485e-08
3.72692e-08
6.2273e-08
6.2273e-08
1.3337e-07
3.09337e-07
3.09337e-07
7.10719e-07
7.10719e-07
1.46737e-06
2.55294e-06
2.55294e-06
3.61798e-06
3.61798e-06
4.17737e-06
3.64192e-06
3.64192e-06
)
;
    }
    right
    {
        type            cyclicAMI;
        value           nonuniform List<scalar> 
32
(
3.36152e-06
3.36152e-06
3.36152e-06
3.36152e-06
8.19991e-05
8.19991e-05
0.000240145
0.000240145
0.000240145
0.000349228
0.000349228
0.000429881
0.000488512
0.000488512
0.000516691
0.000516691
0.000511275
0.000459485
0.000459485
0.000400002
0.000363219
0.000363219
0.000341338
0.000323543
0.000297454
0.000297454
0.000262928
0.000225088
0.000186795
0.00015182
0.00015182
0.000132111
)
;
    }
    top
    {
        type            zeroGradient;
    }
    left
    {
        type            cyclicAMI;
        value           nonuniform List<scalar> 
32
(
3.36152e-06
3.36152e-06
3.36152e-06
3.36152e-06
8.19991e-05
8.19991e-05
0.000240145
0.000240145
0.000240145
0.000349228
0.000349228
0.000429881
0.000488512
0.000488512
0.000516691
0.000516691
0.000511275
0.000459485
0.000459485
0.000400002
0.000363219
0.000363219
0.000341338
0.000323543
0.000297454
0.000297454
0.000262928
0.000225088
0.000186795
0.00015182
0.00015182
0.000132111
)
;
    }
    front
    {
        type            empty;
    }
}


// ************************************************************************* //
