/*--------------------------------*- C++ -*----------------------------------*\
  =========                 |
  \\      /  F ield         | OpenFOAM: The Open Source CFD Toolbox
   \\    /   O peration     | Website:  https://openfoam.org
    \\  /    A nd           | Version:  7
     \\/     M anipulation  |
\*---------------------------------------------------------------------------*/
FoamFile
{
    version     2.0;
    format      ascii;
    class       volScalarField;
    location    "0";
    object      omega;
}
// * * * * * * * * * * * * * * * * * * * * * * * * * * * * * * * * * * * * * //

dimensions      [0 0 -1 0 0 0 0];

internalField   nonuniform List<scalar> 
1056
(
597.679
593.187
586.898
578.243
382.698
365.09
76.0348
72.8284
68.7015
31.8133
30.4683
21.9706
19.0818
18.8488
17.7296
17.5521
16.3635
14.4351
13.6882
10.9676
8.48438
7.79038
6.09548
4.80246
3.81363
3.51249
2.74934
2.08495
1.58572
1.24848
1.14968
0.973798
636.93
636.199
635.505
634.926
319.331
314.708
66.4351
65.4855
64.477
30.0172
29.6662
21.3929
18.7092
18.6243
17.4778
17.3942
16.0453
13.8755
13.4585
10.6549
8.17355
7.72308
6.00179
4.73663
3.73495
3.49718
2.72694
2.07758
1.57135
1.23108
1.14781
0.975357
786.428
828.694
790.936
613.066
317.51
247.127
83.9656
57.6408
56.5508
28.6961
27.7617
20.5632
18.6245
17.9342
16.904
16.6323
15.5299
13.4439
12.7054
10.0341
7.78497
7.2511
5.77047
4.54375
3.64707
3.40707
2.67916
2.01944
1.54646
1.21603
1.14019
0.967201
713.419
710.845
707.825
704.32
354.887
351.577
72.3625
71.6811
70.6804
30.9624
30.5872
20.9824
17.648
17.5543
16.026
15.9129
14.4505
12.3953
12.041
9.55523
7.3973
7.03087
5.55674
4.44547
3.54268
3.34155
2.62061
2.00862
1.52926
1.20237
1.13375
0.970283
660.718
655.698
650.28
644.93
350.848
338.523
72.1913
69.5291
66.9054
30.3085
29.406
20.6467
17.5335
17.3027
15.8433
15.6246
14.1559
12.1676
11.5921
9.26603
7.23219
6.77775
5.43758
4.37117
3.49422
3.27698
2.59148
1.9888
1.51845
1.20026
1.13094
0.968355
698.047
691.808
683.174
671.412
413.318
391.219
83.9653
79.6637
74.2508
32.1585
30.4754
20.7578
17.1251
16.7453
15.0642
14.7638
13.3042
11.4766
10.8906
8.73089
6.9022
5.60512
5.21503
4.21336
3.40418
3.19211
2.53294
1.94869
1.50045
1.1935
1.12404
0.966193
739.09
738.589
738.15
737.829
339.004
335.22
71.8273
71.0048
70.1213
30.0988
29.7988
20.0614
16.5564
16.4572
14.701
14.6027
12.9952
10.9958
10.7303
8.52144
6.691
6.43125
5.14788
4.1635
3.34391
3.17663
2.51226
1.94393
1.49215
1.18371
1.12283
0.968965
780.746
762.917
705.01
471.364
376.192
319.607
90.2648
73.8273
64.6715
30.853
28.3414
19.656
16.4549
15.7218
14.0714
13.6912
12.3117
10.5581
9.97972
8.05019
6.43346
5.34015
4.969
4.02228
3.28179
3.08128
2.4667
1.89791
1.47663
1.18377
1.11664
0.963525
744.369
741.955
739.219
736.18
387.097
382.135
93.2686
91.8776
90.1652
34.7847
34.1756
20.8684
15.9733
15.7872
13.4235
13.2558
11.5825
9.89249
9.62235
7.82393
6.27936
5.1015
4.87416
3.97606
3.22447
3.0546
2.4381
1.89974
1.46989
1.17551
1.11404
0.966452
717.342
713.562
709.286
405.491
397.19
387.441
96.4615
93.7237
90.7073
35.0984
34.0531
20.8437
15.9882
15.6768
13.3421
13.0936
11.465
9.84709
9.48706
7.76086
6.25438
5.10946
4.84057
3.95528
3.21476
3.03343
2.43006
1.89347
1.46725
1.17621
1.11325
0.965262
721.038
710.245
696.428
452.955
428.316
401.527
125.604
116.417
50.2575
45.9257
23.3364
21.92
15.6768
15.1497
12.9699
12.6206
11.2047
9.7678
9.31528
7.72666
6.2355
5.14042
4.82213
3.93552
3.21121
3.02268
2.42938
1.88693
1.4665
1.178
1.11325
0.963324
800.821
799.021
796.945
794.572
392.157
390.254
387.843
120.231
119.059
52.6912
51.8916
25.7948
25.4061
16.1731
13.1119
13.0136
11.2758
9.69211
9.52606
7.87716
6.30089
6.0887
4.89525
3.9801
3.21951
3.07247
2.44546
1.90517
1.47157
1.17372
1.11538
0.966946
773.549
764.669
743.154
538.577
480.464
421.465
152.772
140.792
91.472
83.1566
55.1097
46.994
28.942
24.0682
16.0232
14.9348
11.8643
10.1968
9.7505
8.21934
6.70481
5.50961
5.0687
4.06045
3.31081
3.1081
2.48369
1.91185
1.4857
1.18771
1.11961
0.963553
727.304
725.76
724.468
723.685
376.773
370.243
106.202
105.268
104.447
70.2093
69.8834
56.4485
42.0015
40.3942
27.9567
26.2817
17.2989
12.0642
11.507
9.01013
7.23227
5.80766
5.47233
4.34567
3.45251
3.24599
2.56985
1.98238
1.5139
1.19573
1.12964
0.968842
756.608
752.849
748.285
742.721
424.518
418.557
107.407
106.737
105.487
68.9399
68.8543
58.8104
45.8288
44.7273
31.9243
29.9266
19.5105
13.0396
12.2965
9.4345
7.54796
6.07809
5.6708
4.46987
3.54648
3.32356
2.613
2.00541
1.53035
1.20476
1.13327
0.96882
689.968
664.901
633.61
602.154
357.873
321.916
77.4762
70.487
64.7052
39.8814
40.6985
40.6814
42.2271
41.9916
38.0929
35.6279
27.8029
18.9942
16.9011
11.5052
8.50311
6.71778
6.19791
4.78904
3.74603
3.48724
2.72415
2.0596
1.56093
1.22136
1.1453
0.968783
734.571
736.143
738.127
740.614
308.258
304.455
62.686
61.9292
61.1661
27.9881
27.9301
26.4782
29.8564
30.5478
32.805
33.1501
30.2827
23.2594
22.1055
15.4115
10.3923
9.7214
6.96119
5.2205
3.98701
3.74746
2.85598
2.14644
1.60059
1.23111
1.16018
0.975271
698.684
695.601
687.659
669.111
452.036
399.033
86.5513
77.1442
66.4272
29.1721
26.4634
21.7062
24.2889
26.4167
31.0496
32.4697
31.9491
26.7507
24.4639
16.7387
11.3211
10.1326
7.22119
5.37171
4.13922
3.82359
2.91814
2.16456
1.6199
1.24836
1.16373
0.971689
611.818
609.496
607.396
605.904
306.366
298.268
63.5345
61.6257
59.8347
25.2952
24.6468
17.3217
18.1131
18.5452
23.0866
24.2076
27.1959
26.4992
25.5719
19.8658
13.7926
12.3194
8.40798
5.95069
4.3893
4.05966
3.05329
2.25541
1.65725
1.26101
1.17758
0.976835
637.168
634.289
630.77
626.467
342.257
337.483
69.0566
68.1018
66.485
27.1287
26.5048
17.604
17.2199
17.3797
21.1172
21.9415
25.9819
26.8369
26.2499
21.1378
14.8542
13.3287
8.86203
6.17179
4.52618
4.17826
3.10867
2.28438
1.67563
1.26941
1.1817
0.977508
0.1118
577.615
550.933
506.149
318.95
273.619
235.923
62.5579
54.9715
26.8669
24.5912
17.3889
16.6285
14.9987
16.3806
17.3971
21.6261
24.483
24.6439
22.2689
16.164
14.4151
9.84677
6.61225
4.79273
4.38383
3.23262
2.33202
1.70489
1.28664
1.19243
0.975749
578.825
578.333
577.828
261.078
258.361
255.197
59.2941
58.5724
57.7585
26.0161
25.7205
17.6909
15.51
15.4706
16.3513
16.4873
20.069
22.8105
23.0256
21.251
16.1569
11.1318
10.2764
6.95452
4.89905
4.55478
3.29977
2.38532
1.72301
1.28667
1.19983
0.980913
0.1118
529.403
519.53
504.579
318.144
290.851
262.462
64.8949
58.7956
27.5969
25.6941
18.1526
17.4768
15.5939
16.1081
16.5579
19.437
22.1293
22.6581
21.4875
16.5824
14.9578
10.3312
6.96316
4.97286
4.54109
3.31118
2.37814
1.72785
1.29637
1.19988
0.976927
531.184
527.629
523.327
518.247
288.492
279.173
62.7602
60.7945
58.378
26.7086
25.9109
18.6772
16.7978
16.7586
17.3938
17.6725
19.7191
21.3672
21.4581
19.9281
15.6287
14.3357
10.0235
6.89595
4.92373
4.52016
3.29995
2.3834
1.7278
1.2944
1.20025
0.978441
542.852
540.937
538.828
536.622
269.176
263.788
59.4171
58.2183
56.8491
26.1724
25.7088
18.6518
16.9499
16.9385
17.7049
17.9164
19.8933
21.2527
21.2852
19.5318
15.2638
14.1452
9.88643
6.83712
4.87616
4.5002
3.2864
2.38015
1.72398
1.29024
1.19964
0.979477
598.492
605.767
596.692
537.742
332.836
252.112
73.9524
56.7902
49.8186
26.5262
24.7789
19.5007
18.3848
18.1611
18.8638
19.2021
20.5408
20.7101
20.4967
18.4006
14.041
12.7679
9.14359
6.37381
4.73031
4.34395
3.21959
2.31942
1.70794
1.28896
1.19417
0.974303
597.565
595.639
593.378
590.729
279.464
277.198
57.3469
56.9013
56.2669
27.1073
26.894
20.5928
19.2874
19.3034
19.6986
19.7624
20.3141
19.6364
19.3772
16.6174
12.6231
11.866
8.49002
6.13086
4.52316
4.22309
3.14209
2.30782
1.68838
1.27289
1.18785
0.978075
543.19
534.413
523.662
511.786
294.287
274.852
60.5161
56.8147
53.2579
27.169
26.125
20.7055
19.4977
19.5021
19.8401
19.9927
20.3129
19.4761
18.9033
16.1081
12.2468
11.1653
8.19098
5.96204
4.45857
4.11977
3.10274
2.27727
1.67687
1.27335
1.18441
0.97463
586.724
582.532
577.119
570.195
330.696
318.929
64.577
62.5976
59.8445
28.99
28.1455
21.6638
20.0348
19.9899
19.9522
19.99
19.7402
18.3344
17.7226
14.6027
11.0935
10.1952
7.52883
5.62258
4.28313
3.9716
3.01282
2.23195
1.65423
1.26246
1.17587
0.974377
598.806
597.751
596.812
596.053
281.414
276.475
57.8968
56.951
55.9685
27.7525
27.4418
21.3624
19.9791
19.9625
19.9443
19.957
19.5049
17.7466
17.2873
14.0456
10.5922
9.91154
7.33627
5.51415
4.18995
3.91794
2.97875
2.21932
1.64223
1.25302
1.17349
0.976169
715.848
760.956
749.539
583.806
298.788
213.497
76.1658
51.2799
50.9617
27.4279
26.7348
21.1381
20.1103
19.7606
19.565
19.4756
18.9201
16.7252
15.8912
12.6711
9.62094
7.5231
6.7861
5.14201
4.03976
3.75592
2.89589
2.14204
1.61674
1.24784
1.16421
0.970588
619.345
616.99
614.168
610.863
322.9
319.828
65.1346
64.527
63.686
29.7981
29.496
21.823
19.6202
19.5671
18.8182
18.746
17.6415
15.4572
15.0236
11.9743
9.08002
8.55884
6.52161
5.06016
3.94392
3.68798
2.8451
2.14716
1.61118
1.24931
1.16099
0.977155
554.18
546.9
538.284
528.8
332.192
315.983
67.2771
64.0021
60.8106
29.6314
28.592
21.6987
19.5938
19.4356
18.6721
18.5104
17.3545
15.2668
14.4563
11.6221
8.89721
6.93873
6.37394
4.97207
3.9095
3.60758
2.81741
2.12483
1.60666
1.25659
1.15939
0.975458
)
;

boundaryField
{
    back
    {
        type            empty;
    }
    bottom
    {
        type            omegaWallFunction;
        value           nonuniform List<scalar> 
33
(
915.073
915.073
957.033
993.538
993.538
1017.96
1017.96
1028.08
1027.99
1027.99
1029.75
1029.75
1055.95
1072.59
1072.59
1048.78
1048.78
985.785
898.857
898.857
811.416
758.474
758.474
757.519
757.519
782.038
816.542
816.542
850.576
850.576
876.577
890.404
890.404
)
;
    }
    right
    {
        type            cyclicAMI;
        value           nonuniform List<scalar> 
32
(
902.766
902.766
902.766
902.766
137.34
137.34
45.5275
45.5275
45.5275
26.2553
26.2553
20.5805
18.8253
18.8253
18.2097
18.2097
17.1726
14.5729
14.5729
11.1199
8.1534
8.1534
6.19317
4.78664
3.67293
3.67293
2.78702
2.07432
1.52433
1.14423
1.14423
0.956931
)
;
    }
    top
    {
        type            zeroGradient;
    }
    left
    {
        type            cyclicAMI;
        value           nonuniform List<scalar> 
32
(
902.766
902.766
902.766
902.766
137.34
137.34
45.5275
45.5275
45.5275
26.2553
26.2553
20.5805
18.8253
18.8253
18.2097
18.2097
17.1726
14.5729
14.5729
11.1199
8.1534
8.1534
6.19317
4.78664
3.67293
3.67293
2.78702
2.07432
1.52433
1.14423
1.14423
0.956931
)
;
    }
    front
    {
        type            empty;
    }
}


// ************************************************************************* //
