/*--------------------------------*- C++ -*----------------------------------*\
  =========                 |
  \\      /  F ield         | OpenFOAM: The Open Source CFD Toolbox
   \\    /   O peration     | Website:  https://openfoam.org
    \\  /    A nd           | Version:  7
     \\/     M anipulation  |
\*---------------------------------------------------------------------------*/
FoamFile
{
    version     2.0;
    format      ascii;
    class       volScalarField;
    location    "0";
    object      p;
}
// * * * * * * * * * * * * * * * * * * * * * * * * * * * * * * * * * * * * * //

dimensions      [0 2 -2 0 0 0 0];

internalField   nonuniform List<scalar> 
1056
(
0.00118283
0.00118316
0.00118347
0.00118369
0.0011813
0.00118106
0.00116569
0.00116491
0.0011634
0.00113868
0.0011355
0.0011052
0.00107417
0.00106968
0.00103932
0.00103248
0.00099632
0.000947698
0.000930271
0.000859833
0.00077109
0.000736366
0.00063779
0.000529548
0.000423626
0.000385973
0.000294869
0.000208893
0.000136939
8.29633e-05
6.44735e-05
2.50124e-05
0.00115841
0.00115818
0.00115786
0.00115745
0.00116089
0.00116026
0.00114344
0.00114245
0.0011412
0.00111378
0.00111175
0.00107859
0.00104579
0.0010424
0.00100989
0.00100493
0.000965343
0.000912741
0.000900302
0.000825696
0.000736399
0.000711679
0.000608154
0.000503683
0.00040257
0.000372148
0.000280015
0.000198584
0.00013097
7.87945e-05
6.24838e-05
2.41527e-05
0.0010434
0.0010461
0.00104558
0.00104185
0.00103744
0.00103599
0.00101858
0.00101611
0.00100553
0.000980965
0.000968716
0.000938332
0.000903247
0.000894198
0.000856841
0.000845055
0.00081377
0.00075821
0.000738618
0.000680925
0.000594793
0.00056298
0.000485244
0.000397951
0.000315071
0.000288896
0.000220659
0.000156326
0.000102951
6.08537e-05
4.9456e-05
1.72301e-05
0.00068311
0.000682151
0.000681023
0.000679714
0.000664849
0.000663513
0.000643607
0.000641678
0.000639338
0.000609955
0.000606486
0.000571878
0.000538785
0.000533766
0.000504981
0.000498055
0.000470844
0.000439313
0.000428315
0.000388755
0.000341399
0.000323354
0.00027471
0.000226795
0.000180638
0.000164332
0.000127746
9.38755e-05
6.26089e-05
3.49581e-05
2.93179e-05
9.88744e-06
0.000613365
0.00061297
0.000612323
0.00061131
0.000612907
0.000611398
0.000590455
0.000588155
0.000585052
0.000555408
0.000550663
0.000516563
0.000484239
0.000477696
0.000449602
0.000441363
0.000414829
0.000385531
0.000372081
0.000335706
0.000293249
0.000273841
0.000231177
0.000190361
0.000151766
0.000136886
0.000105968
7.87669e-05
5.29196e-05
3.14689e-05
2.46872e-05
7.61589e-06
7.4456e-05
7.37433e-05
7.29592e-05
7.21079e-05
6.39587e-05
6.27304e-05
4.8952e-05
4.70575e-05
4.47798e-05
2.79051e-05
2.44428e-05
6.44959e-06
-8.30802e-06
-1.26182e-05
-2.07477e-05
-2.42324e-05
-2.52478e-05
-2.17167e-05
-2.36844e-05
-2.02225e-05
-1.65944e-05
-1.40019e-05
-1.65745e-05
-1.18651e-05
-4.10602e-06
-4.99621e-06
9.2103e-07
4.85214e-06
6.16792e-06
3.01385e-06
2.25603e-06
-1.47509e-06
-5.42538e-05
-5.54436e-05
-5.68295e-05
-5.84136e-05
-3.40008e-05
-3.61138e-05
-4.61313e-05
-4.89118e-05
-5.20433e-05
-6.3831e-05
-6.77935e-05
-8.12394e-05
-8.994e-05
-9.54636e-05
-9.68176e-05
-0.00010247
-9.69323e-05
-8.55285e-05
-9.12997e-05
-8.02087e-05
-6.75791e-05
-7.08737e-05
-6.15993e-05
-4.83196e-05
-3.19204e-05
-3.18398e-05
-2.18599e-05
-1.14244e-05
-3.7733e-06
-6.17006e-07
-2.42115e-06
-3.5915e-06
-0.000643485
-0.000643774
-0.000644006
-0.00064334
-0.000643547
-0.000643224
-0.000638127
-0.000637016
-0.000633936
-0.000624601
-0.000621476
-0.000609374
-0.000591572
-0.000586753
-0.000558826
-0.000549438
-0.000514173
-0.000466579
-0.00045208
-0.000401338
-0.000343452
-0.00029217
-0.000275372
-0.000220521
-0.000169071
-0.00015615
-0.000113795
-7.53292e-05
-4.69844e-05
-2.77265e-05
-2.33269e-05
-1.14736e-05
-0.00112804
-0.00112901
-0.00112999
-0.00113093
-0.0011441
-0.00114453
-0.0011175
-0.00111807
-0.00111817
-0.00107878
-0.00107845
-0.00103395
-0.000977324
-0.000975279
-0.000910322
-0.000905166
-0.000830387
-0.000747895
-0.000735834
-0.000645457
-0.000553441
-0.000464687
-0.000443538
-0.00035642
-0.00027698
-0.000259006
-0.00018999
-0.000130601
-8.37242e-05
-5.0185e-05
-4.13668e-05
-1.87733e-05
-0.00119971
-0.00119996
-0.0012001
-0.00119571
-0.00119541
-0.00119482
-0.00116748
-0.0011666
-0.00116513
-0.00112508
-0.00112241
-0.00107694
-0.00102014
-0.00101399
-0.000949295
-0.00093876
-0.000864389
-0.00078215
-0.000763424
-0.000674003
-0.000580866
-0.000489633
-0.00046521
-0.000376296
-0.000293603
-0.000271808
-0.000202747
-0.000140503
-9.03714e-05
-5.29222e-05
-4.45762e-05
-1.99891e-05
-0.00129687
-0.00129735
-0.00129754
-0.00129108
-0.00128995
-0.0012881
-0.00125528
-0.00125118
-0.0012081
-0.00120222
-0.00115325
-0.00114589
-0.00109629
-0.00108503
-0.00102727
-0.00101041
-0.000943817
-0.000866302
-0.000841444
-0.000757178
-0.000663119
-0.000572052
-0.000541588
-0.000446315
-0.000354609
-0.000328366
-0.00025047
-0.000177279
-0.000115835
-6.94923e-05
-5.75245e-05
-2.44616e-05
-0.00120787
-0.00120885
-0.00120995
-0.0012112
-0.00122376
-0.00122473
-0.00122577
-0.0011924
-0.00119339
-0.00114788
-0.00114886
-0.00109555
-0.00109639
-0.00104611
-0.000988288
-0.00098686
-0.000918973
-0.000842827
-0.000835685
-0.000748802
-0.000656777
-0.000641569
-0.00054582
-0.000451075
-0.000359812
-0.000339222
-0.000257519
-0.000183589
-0.000120292
-7.03319e-05
-5.98885e-05
-2.6026e-05
-0.000940295
-0.000940477
-0.000940638
-0.00093859
-0.000938512
-0.000938271
-0.000929435
-0.000927778
-0.000910076
-0.000905022
-0.000883333
-0.000876632
-0.000857232
-0.000854656
-0.000835959
-0.000830545
-0.000804716
-0.000767
-0.000754487
-0.000704287
-0.000637821
-0.000570729
-0.00054527
-0.000463008
-0.000379549
-0.000354596
-0.000277474
-0.000200128
-0.000133929
-8.10627e-05
-6.72637e-05
-2.7411e-05
-0.000643735
-0.000644481
-0.000645452
-0.000646714
-0.000634956
-0.000636344
-0.000636976
-0.000638532
-0.000640679
-0.000635788
-0.000638084
-0.00062333
-0.000609806
-0.000610978
-0.000603187
-0.000607212
-0.000604391
-0.000598939
-0.00060084
-0.000580846
-0.000547342
-0.000501677
-0.000492239
-0.000432668
-0.000364332
-0.000346083
-0.000275968
-0.000204113
-0.000137945
-8.32109e-05
-7.01222e-05
-2.90037e-05
-0.000607503
-0.000607642
-0.000607818
-0.000608047
-0.000606884
-0.000607192
-0.000610133
-0.000610545
-0.000611142
-0.000610181
-0.000610866
-0.000601411
-0.000589219
-0.000588699
-0.000579233
-0.000580814
-0.000579264
-0.000578199
-0.000580205
-0.000565521
-0.000537265
-0.000497712
-0.00048673
-0.000429749
-0.000364812
-0.000347255
-0.000276995
-0.000204844
-0.000139141
-8.45829e-05
-7.05777e-05
-2.881e-05
-0.000474389
-0.000474468
-0.000474641
-0.000474928
-0.000475195
-0.000475634
-0.000477421
-0.000477853
-0.000478425
-0.000478712
-0.000478964
-0.000476875
-0.000472176
-0.000471583
-0.000465095
-0.000463156
-0.000456989
-0.000454696
-0.00045765
-0.00045503
-0.000444884
-0.000423618
-0.000417131
-0.000378361
-0.000327929
-0.000313413
-0.000256667
-0.00019287
-0.000132089
-8.07404e-05
-6.77443e-05
-2.6739e-05
-0.00042018
-0.000420509
-0.000420892
-0.000421334
-0.000418631
-0.000419177
-0.000420101
-0.000420828
-0.000421674
-0.000421513
-0.000422612
-0.000420105
-0.000414664
-0.000416028
-0.000408063
-0.000409673
-0.000399431
-0.000391603
-0.000393681
-0.000387962
-0.000375666
-0.000377438
-0.000358191
-0.000326845
-0.000283317
-0.000275967
-0.000227264
-0.00017212
-0.00011738
-6.99164e-05
-6.0723e-05
-2.4511e-05
-0.000406432
-0.000406416
-0.000406413
-0.000406443
-0.000407
-0.00040718
-0.000408631
-0.000408856
-0.000409164
-0.000409879
-0.000410018
-0.000408977
-0.000405984
-0.000404879
-0.000399023
-0.000397088
-0.00038881
-0.000382292
-0.000381036
-0.000372833
-0.000363075
-0.000361297
-0.000345279
-0.00031722
-0.000277382
-0.000266762
-0.000220013
-0.000166765
-0.000114537
-7.04549e-05
-5.88781e-05
-2.25862e-05
-0.00037029
-0.000370378
-0.000370493
-0.000370646
-0.000370862
-0.000371059
-0.000373192
-0.000373442
-0.000373771
-0.000375441
-0.000375823
-0.000375568
-0.000372455
-0.000372165
-0.00036482
-0.000363802
-0.000352753
-0.000340179
-0.000338237
-0.000322651
-0.000305069
-0.00030226
-0.000282723
-0.000255979
-0.000221369
-0.000214254
-0.000175677
-0.000132221
-9.05942e-05
-5.43382e-05
-4.66094e-05
-1.76689e-05
-0.000365787
-0.000365849
-0.000365921
-0.000366005
-0.000367463
-0.000367553
-0.000370114
-0.000370208
-0.000370347
-0.000372616
-0.000372741
-0.000373399
-0.000371379
-0.000370998
-0.00036466
-0.000363459
-0.000352665
-0.000338847
-0.000336507
-0.000319186
-0.000299429
-0.000296381
-0.000273983
-0.000246233
-0.000212433
-0.000206035
-0.000166353
-0.000124475
-8.54747e-05
-5.28335e-05
-4.38625e-05
-1.61965e-05
0
-0.000343683
-0.000343865
-0.000344123
-0.000346476
-0.000347071
-0.000347881
-0.000352251
-0.000353318
-0.000358093
-0.000359165
-0.000363119
-0.000363854
-0.000365337
-0.000362379
-0.000360322
-0.000349948
-0.000329459
-0.00032193
-0.000293827
-0.000259854
-0.000250066
-0.000219041
-0.000185229
-0.000151322
-0.000143549
-0.000112106
-8.11935e-05
-5.47194e-05
-3.26445e-05
-2.73792e-05
-8.74151e-06
-0.000299988
-0.000300107
-0.000300227
-0.000303558
-0.000303744
-0.000303927
-0.000310656
-0.000310979
-0.000311264
-0.000319595
-0.000319998
-0.000327922
-0.000333394
-0.000334073
-0.000333784
-0.000333912
-0.000322048
-0.000295305
-0.000291488
-0.000250986
-0.000204663
-0.000158483
-0.000153504
-0.000113509
-7.76335e-05
-7.17255e-05
-5.0157e-05
-3.3307e-05
-1.94024e-05
-8.78501e-06
-8.45359e-06
-1.16582e-06
0
-0.000293561
-0.000293953
-0.000294291
-0.000298798
-0.000299299
-0.000299801
-0.000306003
-0.000307026
-0.000314716
-0.000316084
-0.000323577
-0.00032495
-0.000330631
-0.000331423
-0.000330839
-0.00032112
-0.000295848
-0.000285763
-0.000245385
-0.000197071
-0.000181927
-0.000138465
-9.63722e-05
-6.19695e-05
-5.42123e-05
-3.25185e-05
-1.96392e-05
-1.10479e-05
-6.05924e-06
-4.28881e-06
1.33355e-06
-0.000169354
-0.000169423
-0.000169476
-0.000169496
-0.000172554
-0.000172646
-0.000177973
-0.000178298
-0.00017861
-0.000186934
-0.000187559
-0.000196567
-0.00020323
-0.000203958
-0.000205432
-0.000204922
-0.000195981
-0.000172676
-0.000165043
-0.000125535
-7.94559e-05
-6.56624e-05
-2.35991e-05
1.25523e-05
3.52164e-05
4.00039e-05
4.51037e-05
3.99373e-05
2.87103e-05
1.92419e-05
1.61262e-05
1.01054e-05
-0.000134454
-0.000134459
-0.000134406
-0.000134253
-0.000146277
-0.000146022
-0.000151736
-0.000151599
-0.000151233
-0.000160162
-0.000159844
-0.00016931
-0.000175948
-0.000175477
-0.000176383
-0.000174747
-0.000164751
-0.000141197
-0.000133122
-9.34009e-05
-4.92917e-05
-3.64672e-05
5.64242e-06
3.80847e-05
5.59244e-05
6.02519e-05
6.31072e-05
5.29274e-05
3.6938e-05
2.20145e-05
2.0196e-05
1.21684e-05
9.4744e-05
9.41287e-05
9.37624e-05
9.39642e-05
9.29127e-05
9.28054e-05
9.04462e-05
8.91337e-05
8.82039e-05
8.09894e-05
7.96394e-05
7.13484e-05
6.78659e-05
6.55167e-05
6.7463e-05
6.92856e-05
7.5347e-05
9.37285e-05
0.000101712
0.000125218
0.00015222
0.000161957
0.000177114
0.000183936
0.000173816
0.000170656
0.000146232
0.000112148
7.60282e-05
4.68043e-05
3.9595e-05
1.95188e-05
0.000423513
0.000424571
0.00042583
0.000427343
0.000439397
0.000440731
0.000433464
0.000435065
0.000437005
0.000423902
0.000426319
0.000412477
0.000403429
0.00040678
0.000403348
0.000408489
0.000407759
0.0004086
0.000414828
0.00041055
0.00040005
0.000404933
0.000377273
0.000339515
0.000294572
0.000287217
0.000227431
0.000165895
0.000111338
6.80585e-05
5.67303e-05
2.58116e-05
0.000497209
0.000497324
0.000497558
0.00049799
0.000493897
0.000494273
0.000489414
0.000489255
0.000489247
0.000478795
0.000478271
0.00046791
0.00046194
0.000462947
0.000462499
0.000465327
0.000467014
0.000467593
0.000470864
0.000465334
0.000449819
0.000446522
0.000416989
0.000373124
0.000318877
0.000304842
0.000244515
0.000178165
0.000118168
7.05381e-05
5.963e-05
2.65661e-05
0.000861742
0.000862857
0.000864034
0.00086518
0.00086971
0.000870496
0.000860832
0.000861608
0.000861847
0.000844722
0.000844353
0.00082599
0.000811775
0.000812954
0.000804116
0.000805336
0.000794402
0.000774405
0.000771027
0.000734986
0.000681372
0.00066606
0.000596071
0.000512072
0.000422155
0.000398529
0.000309861
0.000221898
0.000145308
8.67826e-05
7.19963e-05
3.02774e-05
0.000911623
0.000912173
0.000912833
0.000913574
0.000904975
0.000905786
0.000894812
0.000895662
0.000896653
0.000877279
0.000878255
0.000858564
0.000844852
0.000846762
0.000837697
0.000839924
0.000827214
0.000803223
0.000802437
0.000761312
0.000701901
0.000690144
0.00061429
0.00052605
0.000430748
0.000408878
0.000317493
0.000227335
0.000148364
8.68588e-05
7.37155e-05
3.10308e-05
0.001165
0.00116735
0.00116779
0.00116565
0.00116405
0.00116425
0.00115218
0.00115133
0.00114327
0.0011243
0.00111632
0.00109561
0.00107675
0.00107461
0.00105724
0.00105232
0.00103838
0.000993565
0.000979376
0.000928452
0.000837723
0.000748055
0.000714495
0.00060324
0.000486771
0.000453681
0.000349818
0.000247347
0.000161256
9.5794e-05
7.91804e-05
3.08648e-05
0.00122488
0.00122516
0.00122547
0.0012258
0.00122571
0.00122591
0.00121066
0.00121077
0.00121077
0.00118534
0.00118502
0.00115624
0.0011312
0.00113081
0.00110852
0.0011073
0.00107777
0.0010322
0.00102439
0.000954046
0.000863259
0.000841249
0.000731661
0.000613665
0.00049524
0.000463574
0.000352503
0.00024954
0.00016375
9.7651e-05
7.96082e-05
3.21261e-05
0.00123887
0.0012389
0.00123889
0.00123881
0.00123511
0.00123465
0.00122028
0.00121893
0.00121729
0.00119363
0.0011905
0.00116416
0.00114095
0.00113727
0.00111618
0.00111088
0.00108222
0.0010383
0.00102112
0.000953693
0.0008641
0.000764094
0.000726497
0.00061006
0.000493207
0.000454289
0.000349331
0.000246621
0.000163081
9.88856e-05
7.88931e-05
3.12666e-05
)
;

boundaryField
{
    back
    {
        type            empty;
    }
    bottom
    {
        type            zeroGradient;
    }
    right
    {
        type            cyclicAMI;
        value           nonuniform List<scalar> 
32
(
0.00122207
0.00122207
0.00122207
0.00122207
0.0012171
0.0012171
0.00120195
0.00120195
0.00120195
0.00117329
0.00117329
0.00113963
0.00110982
0.00110982
0.00108424
0.00108424
0.00105131
0.00099795
0.00099795
0.000919193
0.000816145
0.000816145
0.000696914
0.000571338
0.000446296
0.000446296
0.000329371
0.000226569
0.000142639
7.54087e-05
7.54087e-05
2.36189e-05
)
;
    }
    top
    {
        type            fixedValue;
        value           uniform 0;
    }
    left
    {
        type            cyclicAMI;
        value           nonuniform List<scalar> 
32
(
0.00122207
0.00122207
0.00122207
0.00122207
0.0012171
0.0012171
0.00120195
0.00120195
0.00120195
0.00117329
0.00117329
0.00113963
0.00110982
0.00110982
0.00108424
0.00108424
0.00105131
0.00099795
0.00099795
0.000919193
0.000816145
0.000816145
0.000696914
0.000571338
0.000446296
0.000446296
0.000329371
0.000226569
0.000142639
7.54087e-05
7.54087e-05
2.36189e-05
)
;
    }
    front
    {
        type            empty;
    }
}


// ************************************************************************* //
