/*--------------------------------*- C++ -*----------------------------------*\
  =========                 |
  \\      /  F ield         | OpenFOAM: The Open Source CFD Toolbox
   \\    /   O peration     | Website:  https://openfoam.org
    \\  /    A nd           | Version:  7
     \\/     M anipulation  |
\*---------------------------------------------------------------------------*/
FoamFile
{
    version     2.0;
    format      ascii;
    class       volScalarField;
    location    "0";
    object      k;
}
// * * * * * * * * * * * * * * * * * * * * * * * * * * * * * * * * * * * * * //

dimensions      [0 2 -2 0 0 0 0];

internalField   nonuniform List<scalar> 
1056
(
3.43688e-05
9.45264e-05
0.000205586
0.000318137
0.0003314
0.000409567
0.000464152
0.000472846
0.000499506
0.000498432
0.000493857
0.000461442
0.000420046
0.0004068
0.000373843
0.000366296
0.000345547
0.000341242
0.000323938
0.000319751
0.000297773
0.000292273
0.000264175
0.000258081
0.000226831
0.000220904
0.000189241
0.000184017
0.000155717
0.000152185
0.000136056
0.000134675
3.07713e-05
0.000101031
0.000220602
0.000331279
0.00033496
0.00041462
0.000469498
0.000472179
0.000499102
0.000494465
0.000491765
0.000455697
0.000410317
0.000404015
0.000369435
0.000365165
0.00034355
0.000340478
0.000322364
0.000318786
0.000296198
0.000291324
0.000262869
0.000257356
0.000225843
0.00022043
0.00018853
0.000183776
0.000155173
0.000152011
0.000135652
0.000134446
1.54332e-05
8.66479e-05
0.000215316
0.000312821
0.000343258
0.000410716
0.000461491
0.000470197
0.000493948
0.000492241
0.00048625
0.000454726
0.000416182
0.000400857
0.000370543
0.000363752
0.000343047
0.000339551
0.000321371
0.000317692
0.000294467
0.000289879
0.000260713
0.000255902
0.000223841
0.000219308
0.000186972
0.000183041
0.000153992
0.000151397
0.00013487
0.000133846
3.14811e-05
0.000100309
0.000219221
0.000325174
0.000328304
0.000400859
0.000450835
0.000477979
0.000478762
0.00047835
0.000476444
0.00044738
0.000406289
0.000400985
0.000367627
0.000363412
0.000341247
0.000337999
0.000318832
0.000315266
0.00029181
0.00028734
0.00025859
0.000253687
0.00022227
0.000217542
0.000185957
0.000181842
0.000153576
0.000150847
0.000134812
0.000133794
3.77291e-05
0.000109736
0.000225608
0.000328078
0.000336407
0.00040544
0.000451509
0.000476144
0.000478049
0.000475788
0.000471659
0.000443325
0.000405169
0.000397176
0.00036616
0.000360988
0.000339953
0.000336252
0.000317486
0.000313428
0.000290328
0.000285449
0.000257157
0.00025209
0.000221108
0.000216404
0.000185149
0.000181163
0.000153143
0.000150576
0.00013471
0.000133729
3.53066e-05
9.67219e-05
0.000206848
0.000309225
0.000322054
0.000389373
0.000434083
0.000458889
0.000461951
0.000462351
0.000459366
0.000435262
0.000402361
0.000392369
0.000363748
0.000357536
0.00033726
0.000333368
0.000314548
0.000310589
0.000287348
0.000282694
0.000254527
0.000249694
0.000219074
0.000214534
0.000183783
0.000179892
0.000152491
0.000149946
0.00013455
0.000133577
3.05353e-05
0.000102613
0.000219548
0.000319744
0.000321999
0.000391062
0.000436489
0.000437921
0.0004601
0.000458059
0.000456589
0.000429881
0.000393841
0.000389635
0.000359478
0.000356202
0.000334831
0.000332066
0.000312462
0.000309138
0.000285582
0.000281406
0.000253252
0.000248699
0.000218229
0.000213824
0.000183275
0.000179456
0.000152309
0.000149814
0.000134546
0.000133615
3.10842e-05
9.59476e-05
0.000204004
0.000294845
0.000319804
0.000376277
0.000418286
0.000439115
0.000445128
0.000446339
0.000441842
0.000422452
0.000394004
0.000384098
0.000357937
0.000352349
0.000332221
0.000328619
0.000309554
0.000305753
0.000282754
0.000278338
0.000250782
0.000246235
0.000216302
0.000212038
0.000181946
0.000178298
0.000151618
0.000149256
0.000134323
0.000133401
2.3413e-05
8.1953e-05
0.000181359
0.000274161
0.000277218
0.000339569
0.000382878
0.000409725
0.00041111
0.000419108
0.000418765
0.000406427
0.000382208
0.000378374
0.00035266
0.000348832
0.000328061
0.000324859
0.0003058
0.000302323
0.000279982
0.000275745
0.00024899
0.000244413
0.000215213
0.000210802
0.00018137
0.00017757
0.000151478
0.000148994
0.000134304
0.00013338
2.53715e-05
8.13961e-05
0.000177768
0.000269676
0.00027518
0.000336545
0.000378628
0.000405114
0.000407559
0.000415752
0.000415346
0.000404372
0.000382058
0.000377064
0.000352204
0.000347667
0.000327365
0.000323825
0.000305119
0.000301381
0.000279366
0.000274932
0.000248458
0.0002438
0.000214807
0.000210399
0.000181095
0.000177345
0.000151351
0.000148919
0.000134257
0.000133337
1.20363e-05
5.19597e-05
0.000130536
0.000221652
0.000238643
0.000306494
0.000354337
0.000383966
0.000388875
0.000400823
0.000400874
0.000395536
0.000378808
0.000373257
0.000350679
0.000345656
0.000325508
0.000321867
0.00030329
0.000299596
0.000277997
0.000273741
0.000247677
0.000243218
0.000214374
0.000210155
0.000180844
0.00017725
0.000151252
0.000148915
0.00013419
0.000133284
8.91164e-06
4.35155e-05
0.000116677
0.000210893
0.000213866
0.000284534
0.000340597
0.00034315
0.00037963
0.000396855
0.000397262
0.000393854
0.000377392
0.000375108
0.00035095
0.000348212
0.00032559
0.000323069
0.000303358
0.00030048
0.000278383
0.000274745
0.000248352
0.000244189
0.000215049
0.000210871
0.000181352
0.000177675
0.00015157
0.000149126
0.000134288
0.000133375
2.11842e-06
1.29979e-05
5.19403e-05
0.000113649
0.000136781
0.000203505
0.000265123
0.000316229
0.00033508
0.000368932
0.000374316
0.000386278
0.000380215
0.000377934
0.0003588
0.00035307
0.000330297
0.000325744
0.000305101
0.0003015
0.000279834
0.000275777
0.000249849
0.00024547
0.000216268
0.000212043
0.00018214
0.0001785
0.000151931
0.000149525
0.000134339
0.00013339
3.55521e-07
3.51168e-06
2.16906e-05
7.36928e-05
7.81738e-05
0.00014255
0.000208457
0.000262104
0.000268742
0.000314149
0.000322273
0.000353893
0.000369179
0.000369569
0.000361245
0.000358048
0.00033876
0.000333984
0.000311139
0.00030677
0.000283721
0.000279225
0.000253346
0.000248503
0.000219214
0.000214542
0.000184125
0.000180194
0.000152945
0.000150411
0.000134623
0.000133657
3.20648e-07
2.79861e-06
1.69356e-05
5.88879e-05
6.29027e-05
0.000124561
0.000193746
0.000248726
0.000253494
0.000298027
0.00030676
0.000343498
0.000366266
0.000367636
0.000363497
0.000361025
0.000343549
0.000338345
0.00031466
0.000309868
0.000286192
0.000281711
0.000255452
0.000250648
0.000220881
0.000216137
0.000185235
0.000181136
0.000153495
0.000150771
0.000134739
0.000133696
3.48656e-07
2.3348e-06
1.04115e-05
3.32043e-05
4.41748e-05
9.64011e-05
0.000159347
0.000216843
0.000229576
0.00026842
0.000277353
0.000307799
0.000336733
0.000345459
0.000357111
0.000357702
0.000348909
0.000344884
0.000322788
0.000317912
0.000291874
0.00028721
0.000259666
0.000254804
0.000224063
0.000219394
0.00018727
0.000183312
0.00015444
0.000151836
0.000134954
0.000133915
3.93499e-07
2.87437e-06
1.21127e-05
3.25944e-05
3.29237e-05
7.33187e-05
0.000138279
0.000141794
0.000212108
0.00026649
0.000269052
0.000303553
0.000329215
0.000332624
0.000345778
0.000347915
0.000347345
0.000346485
0.000328752
0.000324757
0.000299056
0.000294305
0.000264748
0.000260002
0.000227969
0.000223276
0.000189933
0.000185854
0.000155798
0.000153085
0.000135328
0.00013427
4.40926e-07
2.48927e-06
1.00791e-05
2.63643e-05
3.25869e-05
6.44636e-05
0.0001138
0.000132578
0.000199782
0.000257212
0.000270157
0.000299983
0.000318327
0.000324311
0.00034042
0.000345869
0.000347892
0.000347377
0.000333365
0.000329278
0.000302551
0.000297426
0.000267297
0.000262316
0.00022984
0.000224965
0.000191094
0.000186858
0.000156305
0.000153452
0.000135392
0.000134249
8.15845e-07
5.27091e-06
1.84872e-05
4.15371e-05
4.35068e-05
7.58172e-05
0.000121104
0.000127379
0.000197865
0.000263846
0.000273745
0.000314195
0.00032905
0.000330142
0.000338962
0.000340754
0.000344009
0.000343942
0.000335635
0.000332114
0.000308665
0.00030316
0.000272743
0.000267207
0.000233722
0.000228509
0.000193614
0.000189196
0.000157541
0.00015462
0.000135695
0.000134537
7.28683e-07
4.65547e-06
1.76033e-05
4.10766e-05
4.22457e-05
7.33469e-05
0.000115988
0.00012087
0.000184569
0.000253412
0.000263958
0.00031485
0.000330609
0.000331329
0.000337652
0.000339451
0.000343157
0.000343627
0.000336635
0.000334026
0.000311422
0.000306272
0.000275076
0.000269617
0.000235449
0.000230206
0.000194774
0.000190191
0.000158118
0.000155004
0.000135809
0.000134586
1.62587e-06
8.9488e-06
2.99657e-05
6.17141e-05
7.28822e-05
0.000106539
0.000143328
0.000156755
0.000202459
0.000267514
0.000286478
0.000343104
0.000352787
0.00035091
0.000345741
0.00034453
0.000343483
0.000343237
0.000337629
0.000335138
0.0003152
0.000310202
0.000278885
0.000273497
0.000238249
0.000233087
0.000196495
0.00019205
0.0001589
0.000155882
0.000135939
0.000134705
3.1762e-06
1.77552e-05
5.54683e-05
0.000107401
0.000108818
0.00015965
0.000208817
0.000261299
0.000263769
0.000324448
0.000328686
0.000375761
0.000378689
0.000375836
0.000358933
0.000355883
0.00034549
0.000344551
0.00033685
0.000335073
0.000315884
0.000311974
0.000280764
0.000275798
0.000239965
0.000234948
0.00019773
0.00019326
0.000159569
0.000156472
0.000136089
0.000134848
3.822e-06
1.80566e-05
5.42645e-05
0.000104977
0.000117063
0.000167377
0.000214287
0.000226346
0.000274179
0.00032673
0.000340688
0.000382996
0.000387053
0.000384151
0.000363094
0.000357097
0.000346
0.000344679
0.000337345
0.000335161
0.000316824
0.000312282
0.000281456
0.000276119
0.000240379
0.000235175
0.000197921
0.00019339
0.000159608
0.000156499
0.00013604
0.000134772
8.34965e-06
3.52775e-05
9.43677e-05
0.00016707
0.000174352
0.000239958
0.000297315
0.000305565
0.000357688
0.000401018
0.00040757
0.000428738
0.000414557
0.000408405
0.00037566
0.000368403
0.000348958
0.000346447
0.000336121
0.000333827
0.000315629
0.000311288
0.000281191
0.000275858
0.00024039
0.000235118
0.000198008
0.000193405
0.000159667
0.000156506
0.000136036
0.000134761
8.06978e-06
3.78664e-05
0.000103136
0.000178856
0.000183446
0.000251363
0.000310938
0.000316596
0.000370682
0.000412437
0.000417491
0.000434215
0.000414224
0.000409215
0.000374832
0.000369169
0.000348615
0.000346455
0.000335504
0.000333253
0.000314897
0.000310638
0.000280681
0.000275411
0.000240042
0.0002348
0.000197814
0.000193229
0.000159573
0.000156435
0.00013602
0.000134767
1.22327e-05
4.99854e-05
0.000133518
0.000221219
0.000251772
0.000322355
0.000382442
0.000399188
0.000445731
0.000471194
0.000474536
0.000473634
0.000437346
0.000420632
0.000380242
0.000370327
0.000349184
0.000346157
0.000334334
0.00033178
0.000313042
0.000308645
0.000278758
0.000273648
0.00023851
0.000233491
0.000196806
0.000192404
0.000158999
0.000155974
0.000135841
0.000134603
2.17082e-05
7.78327e-05
0.000184664
0.00029045
0.000294088
0.000376239
0.000440121
0.00048446
0.000486734
0.000500015
0.000499632
0.000477371
0.000427627
0.000421204
0.000376637
0.000371893
0.000348365
0.000345869
0.000332086
0.000329686
0.00031018
0.000306168
0.000276572
0.000271565
0.000236946
0.000231885
0.000195864
0.000191356
0.000158533
0.00015543
0.00013578
0.000134567
2.83185e-05
8.87155e-05
0.000193945
0.00029746
0.000313636
0.000391309
0.000450493
0.00046172
0.000496462
0.000505734
0.00050251
0.00047664
0.000429747
0.0004168
0.000376456
0.000369467
0.000347642
0.000344714
0.000331449
0.000328484
0.000309143
0.000304499
0.000275261
0.000270008
0.000235799
0.000230733
0.000195059
0.000190674
0.000158065
0.000155115
0.000135666
0.000134483
3.34128e-05
9.8166e-05
0.000216993
0.000332301
0.000343165
0.000424383
0.000481827
0.000489359
0.000518213
0.000517504
0.000513553
0.000477275
0.000427202
0.000414143
0.000375259
0.000368248
0.000347118
0.000343722
0.000329523
0.000326552
0.000306384
0.000301922
0.000272698
0.00026752
0.000233773
0.000228719
0.000193739
0.000189307
0.00015739
0.000154392
0.000135552
0.000134374
3.20773e-05
0.000107233
0.00023369
0.000347137
0.000351641
0.000433542
0.000489867
0.000493079
0.000520329
0.000514593
0.000511461
0.000469861
0.000417285
0.000409651
0.00037113
0.00036661
0.000345482
0.000342901
0.000328173
0.000325285
0.000304745
0.000300342
0.000271255
0.000266147
0.000232696
0.000227705
0.000193046
0.000188696
0.000157057
0.000154156
0.000135517
0.000134393
1.62249e-05
9.88274e-05
0.000239081
0.000343125
0.000375921
0.000447896
0.00049813
0.000518572
0.000527182
0.000517127
0.000508653
0.000464567
0.000420214
0.000401304
0.0003707
0.000363806
0.000344535
0.000341495
0.000326672
0.000323529
0.000302272
0.000297812
0.00026843
0.000263573
0.000230285
0.000225592
0.000191376
0.000187258
0.000156153
0.000153393
0.0001353
0.000134196
3.37492e-05
0.000106653
0.000233253
0.000349563
0.000353063
0.000434476
0.000489291
0.000491915
0.000516312
0.000507811
0.000504556
0.000463061
0.00041245
0.000406227
0.000370257
0.000365924
0.000344684
0.000341708
0.000325399
0.000322064
0.000300593
0.000295839
0.000267238
0.000261721
0.000229508
0.000224023
0.000191058
0.000186175
0.000156415
0.000153118
0.000135893
0.000134634
4.20069e-05
0.000115073
0.000235607
0.000348372
0.000362059
0.000438668
0.000489025
0.000513856
0.000515781
0.000506453
0.000498337
0.000459809
0.000414354
0.00040306
0.000370203
0.000364102
0.000344239
0.00034058
0.000324746
0.000320579
0.00029961
0.000294003
0.000266147
0.000260065
0.000228612
0.000222773
0.000190531
0.000185424
0.00015634
0.000152956
0.000136169
0.000134847
)
;

boundaryField
{
    back
    {
        type            empty;
    }
    bottom
    {
        type            kqRWallFunction;
        value           nonuniform List<scalar> 
33
(
3.08239e-06
3.08239e-06
3.39649e-06
3.72448e-06
3.72448e-06
3.60552e-06
3.60552e-06
3.37706e-06
2.35036e-06
2.35036e-06
9.31739e-07
9.31739e-07
1.67689e-07
2.37793e-08
2.37793e-08
2.3485e-08
2.3485e-08
3.72692e-08
6.2273e-08
6.2273e-08
1.3337e-07
3.09337e-07
3.09337e-07
7.10719e-07
7.10719e-07
1.46737e-06
2.55294e-06
2.55294e-06
3.61798e-06
3.61798e-06
4.17737e-06
3.64192e-06
3.64192e-06
)
;
    }
    right
    {
        type            cyclicAMI;
        value           nonuniform List<scalar> 
32
(
3.36152e-06
8.19991e-05
0.000240145
0.000349228
0.000349228
0.000429881
0.000488512
0.000488512
0.000516691
0.000511275
0.000511275
0.000459485
0.000400002
0.000400002
0.000363219
0.000363219
0.000341338
0.000341338
0.000323543
0.000323543
0.000297454
0.000297454
0.000262928
0.000262928
0.000225088
0.000225088
0.000186795
0.000186795
0.00015182
0.00015182
0.000132111
0.000132111
)
;
    }
    top
    {
        type            zeroGradient;
    }
    left
    {
        type            cyclicAMI;
        value           nonuniform List<scalar> 
32
(
3.36152e-06
8.19991e-05
0.000240145
0.000349228
0.000349228
0.000429881
0.000488512
0.000488512
0.000516691
0.000511275
0.000511275
0.000459485
0.000400002
0.000400002
0.000363219
0.000363219
0.000341338
0.000341338
0.000323543
0.000323543
0.000297454
0.000297454
0.000262928
0.000262928
0.000225088
0.000225088
0.000186795
0.000186795
0.00015182
0.00015182
0.000132111
0.000132111
)
;
    }
    front
    {
        type            empty;
    }
}


// ************************************************************************* //
