/*--------------------------------*- C++ -*----------------------------------*\
  =========                 |
  \\      /  F ield         | OpenFOAM: The Open Source CFD Toolbox
   \\    /   O peration     | Website:  https://openfoam.org
    \\  /    A nd           | Version:  7
     \\/     M anipulation  |
\*---------------------------------------------------------------------------*/
FoamFile
{
    version     2.0;
    format      ascii;
    class       volScalarField;
    location    "0";
    object      nut;
}
// * * * * * * * * * * * * * * * * * * * * * * * * * * * * * * * * * * * * * //

dimensions      [0 2 -1 0 0 0 0];

internalField   nonuniform List<scalar> 
1056
(
2.33142e-07
1.57165e-06
5.44284e-06
1.17202e-05
1.27957e-05
1.95188e-05
2.41188e-05
2.46919e-05
2.59664e-05
2.57221e-05
2.56174e-05
2.61813e-05
2.88024e-05
2.98493e-05
3.56855e-05
3.75861e-05
4.54837e-05
4.75149e-05
5.58217e-05
5.77148e-05
6.62322e-05
6.81776e-05
7.79215e-05
8.03304e-05
9.364e-05
9.7098e-05
0.000115626
0.00011848
0.000130637
0.000131935
0.000137009
0.000137382
2.06329e-07
1.62463e-06
5.93582e-06
1.2746e-05
1.30474e-05
2.00916e-05
2.46787e-05
2.48613e-05
2.60873e-05
2.58444e-05
2.5829e-05
2.6653e-05
2.99391e-05
3.06686e-05
3.71738e-05
3.84881e-05
4.67978e-05
4.83547e-05
5.68826e-05
5.849e-05
6.7168e-05
6.89045e-05
7.88598e-05
8.10288e-05
9.46608e-05
9.77607e-05
0.000116795
0.000119351
0.000130887
0.000132046
0.000137119
0.000137445
8.84274e-08
9.55164e-07
4.95959e-06
1.11988e-05
1.38527e-05
2.03384e-05
2.53769e-05
2.57846e-05
2.71382e-05
2.70213e-05
2.71111e-05
2.77392e-05
3.10462e-05
3.18849e-05
3.88314e-05
4.04994e-05
4.91636e-05
5.0868e-05
5.9631e-05
6.12215e-05
7.00978e-05
7.17959e-05
8.19425e-05
8.40915e-05
9.8093e-05
0.000101192
0.000120168
0.000121591
0.000132198
0.000132915
0.000137351
0.000137622
1.91363e-07
1.4523e-06
5.52987e-06
1.2329e-05
1.26294e-05
1.99763e-05
2.56299e-05
2.84178e-05
2.85334e-05
2.95189e-05
2.96214e-05
3.11978e-05
3.53135e-05
3.6109e-05
4.35152e-05
4.49259e-05
5.39898e-05
5.56365e-05
6.46347e-05
6.63096e-05
7.53437e-05
7.71563e-05
8.76036e-05
8.9859e-05
0.000103302
0.000105902
0.000122136
0.000123716
0.000132459
0.000133186
0.000137387
0.00013765
2.33214e-07
1.69648e-06
5.95109e-06
1.26601e-05
1.34624e-05
2.06145e-05
2.59117e-05
2.86938e-05
2.89116e-05
2.99432e-05
3.01273e-05
3.18821e-05
3.60345e-05
3.72523e-05
4.46541e-05
4.64613e-05
5.54188e-05
5.73085e-05
6.61576e-05
6.80099e-05
7.69154e-05
7.88895e-05
8.92609e-05
9.16905e-05
0.000105036
0.000107568
0.000122629
0.000124022
0.000132595
0.000133275
0.000137414
0.000137668
2.0453e-07
1.40335e-06
5.13593e-06
1.14878e-05
1.26945e-05
1.99636e-05
2.60165e-05
3.0086e-05
3.07894e-05
3.30296e-05
3.34578e-05
3.59654e-05
4.04427e-05
4.20252e-05
4.98422e-05
5.21646e-05
6.16383e-05
6.38405e-05
7.31841e-05
7.49791e-05
8.4323e-05
8.60524e-05
9.64991e-05
9.83208e-05
0.000110464
0.000112065
0.000124083
0.000125244
0.000132845
0.000133509
0.000137466
0.000137714
1.74503e-07
1.42339e-06
5.52863e-06
1.24876e-05
1.27058e-05
2.0442e-05
2.67996e-05
2.70498e-05
3.11182e-05
3.37618e-05
3.39452e-05
3.72159e-05
4.27273e-05
4.3672e-05
5.20434e-05
5.34679e-05
6.31093e-05
6.46242e-05
7.42683e-05
7.57242e-05
8.54526e-05
8.7028e-05
9.75428e-05
9.92953e-05
0.000111073
0.000112673
0.000124243
0.000125392
0.000132905
0.000133555
0.000137466
0.000137703
1.67344e-07
1.19022e-06
4.62872e-06
1.07434e-05
1.34195e-05
2.0207e-05
2.65822e-05
3.0908e-05
3.22994e-05
3.6026e-05
3.70176e-05
4.112e-05
4.61984e-05
4.80274e-05
5.51906e-05
5.69415e-05
6.53767e-05
6.70404e-05
7.63334e-05
7.80341e-05
8.79642e-05
8.959e-05
0.00010005
0.000101639
0.00011273
0.000114234
0.000124795
0.00012582
0.000133155
0.000133758
0.000137532
0.000137763
1.07486e-07
1.00497e-06
4.05927e-06
9.90197e-06
1.02151e-05
1.77269e-05
2.48448e-05
3.08039e-05
3.12657e-05
3.63344e-05
3.69028e-05
4.20728e-05
4.82825e-05
4.92259e-05
5.66078e-05
5.78628e-05
6.61976e-05
6.76947e-05
7.69241e-05
7.85773e-05
8.84701e-05
9.01559e-05
0.000100421
0.000102109
0.000112848
0.000114443
0.000124793
0.000125945
0.000133192
0.000133835
0.000137542
0.000137771
1.18009e-07
1.04674e-06
4.02154e-06
9.66808e-06
1.02266e-05
1.76749e-05
2.4672e-05
3.05939e-05
3.13281e-05
3.63249e-05
3.71379e-05
4.22109e-05
4.82401e-05
4.94625e-05
5.66308e-05
5.81227e-05
6.62833e-05
6.79571e-05
7.70511e-05
7.88207e-05
8.85976e-05
9.03489e-05
0.000100526
0.000102249
0.000112936
0.000114533
0.00012486
0.000125983
0.000133232
0.00013386
0.000137553
0.000137781
4.6467e-08
4.87558e-07
2.73256e-06
7.79812e-06
9.35113e-06
1.66088e-05
2.38011e-05
2.96414e-05
3.08733e-05
3.56713e-05
3.67809e-05
4.1654e-05
4.74266e-05
4.91202e-05
5.62549e-05
5.79479e-05
6.60196e-05
6.77234e-05
7.67582e-05
7.85129e-05
8.83483e-05
9.00739e-05
0.000100376
0.000102065
0.000112855
0.000114398
0.000124822
0.000125889
0.000133251
0.000133858
0.000137567
0.00013779
3.40017e-08
3.97409e-07
2.39207e-06
7.09449e-06
7.34669e-06
1.40699e-05
2.20525e-05
2.24618e-05
2.94994e-05
3.53759e-05
3.57445e-05
4.14023e-05
4.77956e-05
4.84926e-05
5.6243e-05
5.71942e-05
6.5786e-05
6.698e-05
7.63742e-05
7.77947e-05
8.7938e-05
8.94805e-05
0.00010005
0.000101642
0.000112566
0.000114104
0.000124571
0.000125715
0.000133164
0.000133802
0.00013754
0.000137765
9.00538e-09
9.21435e-08
5.54422e-07
1.90608e-06
2.52943e-06
6.36997e-06
1.30543e-05
2.06121e-05
2.37817e-05
3.11453e-05
3.28844e-05
3.91736e-05
4.46666e-05
4.64997e-05
5.34031e-05
5.52277e-05
6.34434e-05
6.52113e-05
7.45021e-05
7.62856e-05
8.65362e-05
8.82872e-05
9.90861e-05
0.000100753
0.000111919
0.00011345
0.000124194
0.000125294
0.000133024
0.000133658
0.000137518
0.000137752
1.83778e-09
3.61626e-08
2.60637e-07
1.03402e-06
1.09687e-06
2.75349e-06
6.25534e-06
1.20421e-05
1.30624e-05
2.12337e-05
2.2881e-05
3.19896e-05
4.08057e-05
4.2285e-05
5.05622e-05
5.21099e-05
6.06939e-05
6.24442e-05
7.17517e-05
7.36817e-05
8.39584e-05
8.59652e-05
9.69101e-05
9.88821e-05
0.000110283
0.000112064
0.000123141
0.000124412
0.000132605
0.000133303
0.000137413
0.000137657
1.69133e-09
2.98297e-08
2.13629e-07
8.5926e-07
9.11319e-07
2.29382e-06
5.05833e-06
9.86857e-06
1.05755e-05
1.79764e-05
1.97058e-05
2.90336e-05
3.85092e-05
4.02242e-05
4.86914e-05
5.04468e-05
5.90616e-05
6.09384e-05
7.02832e-05
7.22733e-05
8.27218e-05
8.4739e-05
9.59376e-05
9.79064e-05
0.00010956
0.000111376
0.000122676
0.000124037
0.000132426
0.000133186
0.000137379
0.000137642
2.09186e-09
4.49881e-08
2.84925e-07
8.49501e-07
1.08001e-06
2.0375e-06
3.24615e-06
5.20024e-06
5.87799e-06
1.00017e-05
1.20259e-05
1.92273e-05
2.91191e-05
3.20791e-05
4.26443e-05
4.4978e-05
5.51346e-05
5.70918e-05
6.72042e-05
6.92299e-05
8.00958e-05
8.2128e-05
9.38965e-05
9.58232e-05
0.000108054
0.000109808
0.000121723
0.000123007
0.000132021
0.000132758
0.000137285
0.000137555
2.44988e-09
5.52003e-08
4.44641e-07
1.48968e-06
1.49997e-06
2.75663e-06
4.04561e-06
4.04801e-06
5.37237e-06
7.93733e-06
8.17689e-06
1.40281e-05
2.30665e-05
2.46893e-05
3.59479e-05
3.80061e-05
4.99586e-05
5.20101e-05
6.35913e-05
6.54476e-05
7.71452e-05
7.90817e-05
9.12827e-05
9.32686e-05
0.000106068
0.000107906
0.000120402
0.000121803
0.000131435
0.000132239
0.000137138
0.000137422
2.7556e-09
4.75202e-08
3.55919e-07
1.19566e-06
1.56259e-06
2.86149e-06
3.9354e-06
4.13162e-06
5.12566e-06
6.92997e-06
7.56028e-06
1.15704e-05
1.82065e-05
2.10726e-05
3.16386e-05
3.49638e-05
4.69972e-05
4.97597e-05
6.17792e-05
6.39787e-05
7.56053e-05
7.7684e-05
9.008e-05
9.21613e-05
0.000105235
0.000107143
0.00011992
0.000121375
0.000131255
0.000132103
0.000137115
0.000137423
5.47086e-09
1.03856e-07
6.72042e-07
2.1811e-06
2.33533e-06
4.63627e-06
6.27385e-06
6.34297e-06
7.35527e-06
8.02341e-06
8.21801e-06
1.06131e-05
1.58127e-05
1.71722e-05
2.64563e-05
2.88407e-05
4.11156e-05
4.39752e-05
5.73315e-05
5.99549e-05
7.27171e-05
7.50156e-05
8.78414e-05
9.0062e-05
0.000103463
0.000105492
0.000118734
0.000120265
0.000130725
0.00013161
0.000136991
0.000137311
4.79625e-09
8.6777e-08
5.95423e-07
2.04997e-06
2.1527e-06
4.44872e-06
6.46877e-06
6.57287e-06
7.7965e-06
8.11644e-06
8.23223e-06
1.02331e-05
1.47704e-05
1.58458e-05
2.43993e-05
2.65982e-05
3.87332e-05
4.15629e-05
5.53406e-05
5.80649e-05
7.14268e-05
7.37447e-05
8.6868e-05
8.90629e-05
0.00010272
0.000104779
0.000118236
0.000119858
0.000130514
0.000131468
0.000136956
0.000137293
1.14411e-08
1.69655e-07
9.58867e-07
2.82378e-06
3.68338e-06
6.56628e-06
9.58174e-06
1.03665e-05
1.15865e-05
1.08979e-05
1.07909e-05
1.12007e-05
1.39635e-05
1.47442e-05
2.15164e-05
2.32075e-05
3.45205e-05
3.70433e-05
5.13789e-05
5.4087e-05
6.8735e-05
7.1089e-05
8.49361e-05
8.71106e-05
0.000101402
0.00010342
0.00011739
0.000118955
0.000130136
0.000131074
0.000136883
0.000137233
2.29699e-08
3.38562e-07
1.8106e-06
5.04669e-06
5.1654e-06
9.4775e-06
1.34728e-05
1.53518e-05
1.53034e-05
1.42169e-05
1.40042e-05
1.35974e-05
1.56504e-05
1.5983e-05
2.20303e-05
2.30455e-05
3.38378e-05
3.56393e-05
4.98903e-05
5.21325e-05
6.7177e-05
6.93337e-05
8.34323e-05
8.55253e-05
0.000100138
0.000102099
0.000116796
0.000118385
0.000129839
0.000130815
0.000136824
0.00013718
2.78518e-08
3.48125e-07
1.74376e-06
4.72419e-06
5.63166e-06
9.84987e-06
1.37277e-05
1.45711e-05
1.61564e-05
1.51495e-05
1.4684e-05
1.38964e-05
1.53346e-05
1.59418e-05
2.1148e-05
2.26129e-05
3.28406e-05
3.5217e-05
4.90532e-05
5.17344e-05
6.67197e-05
6.90904e-05
8.29369e-05
8.51559e-05
9.9871e-05
0.00010182
0.000116722
0.000118322
0.000129823
0.0001308
0.000136837
0.000137201
6.27722e-08
6.96837e-07
3.06692e-06
7.49262e-06
8.0616e-06
1.33889e-05
1.77065e-05
1.82006e-05
1.95054e-05
1.81097e-05
1.76356e-05
1.6223e-05
1.70966e-05
1.75337e-05
2.24624e-05
2.38529e-05
3.38464e-05
3.61629e-05
4.9537e-05
5.21068e-05
6.61857e-05
6.83711e-05
8.12908e-05
8.33492e-05
9.77648e-05
0.000100042
0.000116224
0.000117987
0.000129777
0.000130772
0.000136842
0.000137209
5.98048e-08
7.17785e-07
3.32242e-06
8.10116e-06
8.45324e-06
1.39786e-05
1.83227e-05
1.86501e-05
1.9772e-05
1.82275e-05
1.78902e-05
1.65021e-05
1.74362e-05
1.78501e-05
2.30041e-05
2.42834e-05
3.44852e-05
3.6623e-05
5.00134e-05
5.24629e-05
6.61501e-05
6.82665e-05
8.0964e-05
8.29949e-05
9.72386e-05
9.95161e-05
0.000116307
0.000118064
0.000129801
0.000130789
0.00013685
0.000137211
9.35801e-08
8.63514e-07
3.84764e-06
8.93946e-06
1.12714e-05
1.69436e-05
2.08207e-05
2.13352e-05
2.19706e-05
1.98098e-05
1.92466e-05
1.77548e-05
1.85805e-05
1.86376e-05
2.38079e-05
2.51186e-05
3.55924e-05
3.78861e-05
5.07669e-05
5.29043e-05
6.54307e-05
6.72145e-05
7.89e-05
8.08039e-05
9.49267e-05
9.74697e-05
0.000115851
0.000117451
0.000130018
0.000130959
0.000136912
0.00013727
1.68634e-07
1.41779e-06
5.47789e-06
1.1978e-05
1.22387e-05
1.86048e-05
2.21666e-05
2.23517e-05
2.22257e-05
2.01674e-05
2.0017e-05
1.89901e-05
2.02482e-05
2.05853e-05
2.60247e-05
2.7122e-05
3.71151e-05
3.88436e-05
5.07441e-05
5.25123e-05
6.39089e-05
6.54961e-05
7.67877e-05
7.84849e-05
9.25568e-05
9.48706e-05
0.000113994
0.000116002
0.000129678
0.000130808
0.000136949
0.000137298
2.23838e-07
1.7213e-06
5.9221e-06
1.21762e-05
1.3443e-05
1.93318e-05
2.24457e-05
2.25406e-05
2.20338e-05
2.02499e-05
1.98936e-05
1.91055e-05
2.03678e-05
2.09144e-05
2.6299e-05
2.79058e-05
3.75789e-05
3.97436e-05
5.10327e-05
5.30207e-05
6.38689e-05
6.56116e-05
7.6474e-05
7.84058e-05
9.20973e-05
9.47086e-05
0.000113712
0.000115697
0.000129876
0.000130925
0.000136984
0.000137324
2.5452e-07
1.75989e-06
6.14459e-06
1.28711e-05
1.37156e-05
1.98897e-05
2.2984e-05
2.309e-05
2.24831e-05
2.09149e-05
2.06926e-05
2.03182e-05
2.19481e-05
2.25873e-05
2.80384e-05
2.96695e-05
3.869e-05
4.07298e-05
5.0904e-05
5.27661e-05
6.27574e-05
6.44449e-05
7.49177e-05
7.67895e-05
9.03417e-05
9.28857e-05
0.000111993
0.000114292
0.000129714
0.000130923
0.000137033
0.000137369
2.42545e-07
1.89536e-06
6.77428e-06
1.38826e-05
1.42311e-05
2.04864e-05
2.31529e-05
2.31745e-05
2.23641e-05
2.08978e-05
2.07978e-05
2.06105e-05
2.27346e-05
2.33309e-05
2.93482e-05
3.06915e-05
3.985e-05
4.15655e-05
5.15788e-05
5.32602e-05
6.30636e-05
6.46863e-05
7.50617e-05
7.6929e-05
9.04324e-05
9.2992e-05
0.000111946
0.000114229
0.000129842
0.000131001
0.000137046
0.000137367
1.02599e-07
1.18401e-06
5.97435e-06
1.25875e-05
1.52743e-05
2.12733e-05
2.39334e-05
2.35576e-05
2.29354e-05
2.19696e-05
2.18587e-05
2.16969e-05
2.39908e-05
2.44988e-05
3.07954e-05
3.2382e-05
4.11998e-05
4.29483e-05
5.22709e-05
5.38441e-05
6.30958e-05
6.46508e-05
7.47067e-05
7.66003e-05
8.99296e-05
9.25753e-05
0.000111761
0.000114057
0.000130093
0.000131221
0.000137135
0.000137445
2.36546e-07
1.75196e-06
6.35569e-06
1.34042e-05
1.36982e-05
2.0485e-05
2.40924e-05
2.42089e-05
2.44076e-05
2.34909e-05
2.34556e-05
2.37451e-05
2.63969e-05
2.70097e-05
3.31141e-05
3.43744e-05
4.2752e-05
4.43148e-05
5.31142e-05
5.47011e-05
6.3542e-05
6.52012e-05
7.5075e-05
7.71058e-05
9.0366e-05
9.327e-05
0.000111698
0.000114401
0.000129894
0.000131246
0.000136997
0.000137343
3.01197e-07
2.0491e-06
6.66809e-06
1.33814e-05
1.45216e-05
2.08953e-05
2.42488e-05
2.47903e-05
2.45466e-05
2.37323e-05
2.36292e-05
2.40662e-05
2.66236e-05
2.76411e-05
3.34969e-05
3.52813e-05
4.3266e-05
4.51877e-05
5.35897e-05
5.54135e-05
6.39303e-05
6.58142e-05
7.53941e-05
7.77377e-05
9.06654e-05
9.40118e-05
0.000112088
0.000114819
0.000129914
0.000131239
0.000136923
0.000137287
)
;

boundaryField
{
    back
    {
        type            empty;
    }
    bottom
    {
        type            nutkWallFunction;
        value           uniform 0;
    }
    right
    {
        type            cyclicAMI;
        value           nonuniform List<scalar> 
32
(
3.7285e-09
5.98433e-07
5.28247e-06
1.3307e-05
1.3307e-05
2.08859e-05
2.59489e-05
2.59489e-05
2.54999e-05
2.43463e-05
2.43463e-05
2.44875e-05
2.77924e-05
2.77924e-05
3.56949e-05
3.56949e-05
4.56997e-05
4.56997e-05
5.56487e-05
5.56487e-05
6.56406e-05
6.56406e-05
7.68494e-05
7.68494e-05
9.20922e-05
9.20922e-05
0.000115884
0.000115884
0.000132684
0.000132684
0.000138057
0.000138057
)
;
    }
    top
    {
        type            calculated;
        value           nonuniform List<scalar> 
33
(
0.000138079
0.000138079
0.00013811
0.000138138
0.000138138
0.000138162
0.000138162
0.000138185
0.00013821
0.00013821
0.000138214
0.000138214
0.000138183
0.000138122
0.000138122
0.000138043
0.000138043
0.000137965
0.000137885
0.000137885
0.000137844
0.000137846
0.000137846
0.000137856
0.000137856
0.000137917
0.000137941
0.000137941
0.00013797
0.00013797
0.000138002
0.000138036
0.000138036
)
;
    }
    left
    {
        type            cyclicAMI;
        value           nonuniform List<scalar> 
32
(
3.7285e-09
5.98433e-07
5.28247e-06
1.3307e-05
1.3307e-05
2.08859e-05
2.59489e-05
2.59489e-05
2.54999e-05
2.43463e-05
2.43463e-05
2.44875e-05
2.77924e-05
2.77924e-05
3.56949e-05
3.56949e-05
4.56997e-05
4.56997e-05
5.56487e-05
5.56487e-05
6.56406e-05
6.56406e-05
7.68494e-05
7.68494e-05
9.20922e-05
9.20922e-05
0.000115884
0.000115884
0.000132684
0.000132684
0.000138057
0.000138057
)
;
    }
    front
    {
        type            empty;
    }
}


// ************************************************************************* //
