/*--------------------------------*- C++ -*----------------------------------*\
  =========                 |
  \\      /  F ield         | OpenFOAM: The Open Source CFD Toolbox
   \\    /   O peration     | Website:  https://openfoam.org
    \\  /    A nd           | Version:  7
     \\/     M anipulation  |
\*---------------------------------------------------------------------------*/
FoamFile
{
    version     2.0;
    format      ascii;
    class       volScalarField;
    location    "0";
    object      omega;
}
// * * * * * * * * * * * * * * * * * * * * * * * * * * * * * * * * * * * * * //

dimensions      [0 0 -1 0 0 0 0];

internalField   nonuniform List<scalar> 
1056
(
590.108
374.92
74.0197
32.4324
30.5097
21.7975
18.9679
18.6986
17.6198
16.4916
16.1306
14.1334
11.7141
10.9224
8.6462
8.06046
6.41649
6.06951
4.89711
4.66456
3.74859
3.57831
2.84243
2.71571
2.12297
2.0304
1.57033
1.50747
1.1884
1.15234
0.994201
0.98112
635.822
317.197
65.8102
30.2061
29.6764
21.3417
18.6661
18.5723
17.4236
16.1216
15.9281
13.7118
11.0377
10.6247
8.24949
7.90297
6.22703
5.97985
4.79938
4.61021
3.69539
3.54657
2.81291
2.69795
2.10623
2.02117
1.56046
1.50304
1.18243
1.15016
0.990374
0.97895
831.177
252.163
64.2034
32.3909
27.8345
20.5444
18.1136
17.789
16.76
15.5734
15.1311
13.1295
10.8958
10.0365
7.9737
7.49524
5.99739
5.75096
4.6409
4.47771
3.58714
3.46683
2.74192
2.65113
2.06105
1.99431
1.53364
1.48825
1.16826
1.14218
0.982766
0.973134
709.298
353.467
71.9401
31.1122
30.6002
20.9269
17.6057
16.055
15.9573
14.5199
14.3272
12.2673
9.84713
9.53018
7.45474
7.17893
5.74086
5.53943
4.50027
4.34255
3.50739
3.38161
2.69504
2.59739
2.03463
1.96205
1.51999
1.471
1.16305
1.13572
0.982032
0.97252
652.847
345.058
70.4283
30.8202
29.4305
20.515
17.4158
15.9144
15.7044
14.2864
13.9308
11.9539
9.70781
9.2339
7.31583
6.98031
5.63731
5.41621
4.42608
4.26087
3.4553
3.32838
2.6605
2.56466
2.01318
1.94393
1.50827
1.46248
1.15841
1.13288
0.981072
0.971915
687.57
403.546
81.2605
32.9575
30.5262
20.5295
16.9361
15.1652
14.8712
13.4532
13.0725
11.2265
9.26703
8.7011
7.00948
6.63263
5.42269
5.19839
4.27924
4.12196
3.35825
3.23964
2.59905
2.50925
1.97723
1.91114
1.48955
1.445
1.15105
1.12589
0.979479
0.97043
738.344
337.263
71.2866
30.2592
29.8076
20.0139
16.5057
16.3979
14.6358
13.0577
12.9062
10.8882
8.74952
8.50368
6.73439
6.53334
5.28739
5.13426
4.20524
4.07821
3.31699
3.21092
2.57643
2.49107
1.96561
1.9008
1.48422
1.44012
1.14929
1.1246
0.979451
0.970801
738.207
345.019
77.7912
33.4102
28.4459
19.4318
15.9334
14.312
13.85
12.4358
12.0029
10.3078
8.61756
8.04071
6.55753
6.23809
5.13399
4.95238
4.08933
3.95861
3.23371
3.1328
2.5202
2.44211
1.93075
1.87221
1.46515
1.42512
1.14145
1.11841
0.977288
0.968766
740.541
384.879
92.3772
35.066
34.1949
20.7719
15.8846
13.4742
13.3172
11.6527
11.4692
9.78976
8.03928
7.80636
6.32377
6.11764
5.01888
4.86006
4.01943
3.8917
3.19564
3.0906
2.50116
2.41702
1.92196
1.858
1.46158
1.41799
1.14025
1.11583
0.977072
0.968555
711.346
392.733
94.6792
35.6321
34.0839
20.6799
15.8343
13.4248
13.1817
11.5647
11.3069
9.70712
8.0441
7.73972
6.31233
6.06783
5.00004
4.82471
4.00195
3.86706
3.18232
3.0747
2.49189
2.40756
1.91598
1.85292
1.45822
1.41571
1.13888
1.11504
0.97665
0.968174
703.268
415.723
119.55
48.317
42.0567
21.5377
15.3901
13.1166
12.7455
11.3259
10.9984
9.5991
8.11794
7.70512
6.32112
6.04097
4.98353
4.80584
3.98717
3.8566
3.17157
3.06987
2.48507
2.40583
1.91193
1.85278
1.45606
1.41596
1.13789
1.11502
0.976055
0.967716
797.954
391.315
120.563
53.064
51.9174
25.6804
16.2427
16.073
13.0504
11.3136
11.2133
9.63148
8.02332
7.86413
6.33038
6.17891
5.00867
4.88353
4.01491
3.90665
3.19669
3.10292
2.50434
2.4261
1.92555
1.86425
1.46415
1.42155
1.14124
1.11714
0.976975
0.96857
755.345
451.406
144.718
87.7493
75.4044
45.1308
25.9087
16.8124
15.1156
12.1387
11.6717
9.95524
8.63286
8.20274
6.82713
6.4701
5.27387
5.0551
4.13615
3.99675
3.26116
3.15738
2.54025
2.46084
1.9452
1.88549
1.47418
1.43305
1.14514
1.12141
0.977522
0.968778
725.027
373.69
105.571
70.3849
69.8926
56.1462
41.1904
28.5899
26.8331
17.7116
16.7603
11.8302
9.30653
8.987
7.28915
7.01413
5.68228
5.44982
4.40034
4.23028
3.41984
3.29251
2.64118
2.54375
2.00526
1.93445
1.50491
1.45848
1.15705
1.13157
0.980438
0.971462
750.538
422.047
107.019
68.881
68.861
58.6144
45.38
32.4214
30.6916
20.0594
18.6926
12.7375
9.79509
9.40638
7.61844
7.29794
5.92448
5.64985
4.54566
4.35142
3.50284
3.36684
2.6912
2.58947
2.03455
1.96
1.52007
1.47027
1.16288
1.13524
0.981539
0.971846
648.798
340.382
72.6399
39.9179
40.6679
40.9603
42.2485
38.5488
36.7977
28.7529
25.7689
17.9373
12.5964
11.4731
8.66882
8.20354
6.4496
6.16738
4.87065
4.6739
3.68537
3.55163
2.79104
2.69431
2.09039
2.02021
1.54841
1.50156
1.17386
1.14736
0.983877
0.974123
737.14
306.492
62.183
28.0365
27.9312
26.6305
30.2111
30.9579
33.0406
30.4501
30.059
22.7623
16.3481
15.3448
10.5214
9.94869
7.25636
6.93604
5.29583
5.08002
3.94528
3.78924
2.94299
2.8313
2.17471
2.09589
1.59099
1.53938
1.19049
1.16209
0.987833
0.977788
692.283
428.623
80.7349
30.8485
26.5229
21.7268
25.4371
27.6388
32.3363
32.1799
31.316
25.7349
19.61
16.637
11.7302
10.4597
7.70005
7.20171
5.51066
5.25061
4.06044
3.89175
3.00362
2.88814
2.20629
2.1256
1.60594
1.55267
1.19583
1.16593
0.988464
0.977604
608.329
302.532
62.2586
25.6851
24.6638
17.2738
18.3155
18.8629
23.8094
27.0047
27.3807
26.1923
21.0342
19.7649
14.0483
12.9512
8.95022
8.35478
6.06133
5.74148
4.3295
4.1318
3.15044
3.01853
2.28597
2.19696
1.64523
1.58855
1.21088
1.17988
0.991728
0.980621
632.508
340.283
68.4854
27.3515
26.5271
17.5428
17.2818
17.5768
21.6092
25.7063
26.3506
26.6466
22.1931
21.0509
15.1371
13.8963
9.51945
8.81279
6.31661
5.95441
4.45461
4.24186
3.21679
3.07778
2.32155
2.22743
1.6629
1.60208
1.2175
1.18408
0.992837
0.98111
565.683
295.992
65.6278
28.649
24.663
17.1547
15.0631
15.1657
16.7728
21.1102
22.3501
25.0989
23.0079
22.1839
16.632
15.2862
10.5541
9.78901
6.83174
6.45295
4.68489
4.47591
3.32702
3.19425
2.37673
2.28743
1.68918
1.63131
1.2274
1.19489
0.994459
0.982503
578.065
256.917
58.8238
26.1664
25.7295
17.6488
15.4892
16.3129
16.4356
19.9288
20.2748
22.923
21.545
21.2206
16.3096
15.5902
10.8098
10.2281
7.08519
6.72604
4.83395
4.61848
3.40638
3.26768
2.41907
2.32563
1.71109
1.65041
1.23607
1.20221
0.996097
0.984016
524.716
305.679
66.9107
28.6711
25.7475
17.9249
15.6878
15.5695
16.3371
19.0793
19.9709
22.5637
21.9069
21.4387
16.9662
15.7052
11.1025
10.2747
7.17996
6.75175
4.8623
4.63123
3.41571
3.27414
2.42208
2.32879
1.71216
1.65199
1.23622
1.20241
0.995625
0.983281
525.446
284.33
61.5085
27.0865
25.9353
18.5823
16.7746
16.756
17.5595
19.5502
19.9612
21.4496
20.3665
19.8849
15.8665
14.8983
10.6842
9.9681
7.06269
6.65396
4.83564
4.60114
3.4103
3.26405
2.42165
2.32547
1.7138
1.65199
1.23728
1.20278
0.995577
0.983158
539.829
266.722
58.6396
26.4055
25.7228
18.5952
16.9424
16.9396
17.8363
19.7702
20.0738
21.2882
19.9451
19.4914
15.4473
14.6225
10.4704
9.83291
6.97858
6.59541
4.80245
4.57451
3.39605
3.25116
2.4151
2.31915
1.71125
1.64959
1.23639
1.20214
0.995402
0.983198
604.989
287.648
61.7469
28.925
24.8206
19.3118
18.2374
18.3658
19.0606
20.3008
20.5397
20.8661
19.0237
18.3563
14.4153
13.3769
9.73638
9.10737
6.59731
6.26619
4.62319
4.43022
3.31013
3.18429
2.37253
2.28674
1.69211
1.63518
1.22925
1.19665
0.99358
0.981529
594.474
278.486
57.0682
27.1942
26.9012
20.5719
19.2947
19.6815
19.7378
20.3147
20.3065
19.5532
17.0021
16.5806
12.7309
12.188
8.87527
8.45344
6.22862
5.94871
4.46959
4.28141
3.24151
3.11136
2.34013
2.24964
1.67707
1.61745
1.22366
1.19028
0.992787
0.98102
528.926
285.087
58.0562
27.7764
26.1536
20.6056
19.4874
19.5565
19.9381
20.3106
20.2549
19.3275
16.842
16.0513
12.4708
11.6809
8.64361
8.14778
6.08164
5.78946
4.38316
4.1982
3.19209
3.06756
2.31225
2.22738
1.66302
1.60739
1.21821
1.18681
0.991672
0.980195
579.83
325.593
63.351
29.3524
28.1724
21.5738
20.0125
19.9696
19.9779
19.7797
19.6359
18.1048
15.3614
14.5512
11.2879
10.5418
7.95701
7.4972
5.73835
5.46319
4.21513
4.03528
3.10627
2.9827
2.26795
2.18226
1.64125
1.58474
1.20995
1.1782
0.990392
0.979015
597.234
279.128
57.2729
27.924
27.4506
21.3264
19.9703
19.9535
19.9531
19.5524
19.4257
17.5714
14.5544
14.0043
10.7063
10.1894
7.66167
7.3049
5.59555
5.35561
4.14279
3.97458
3.06843
2.94861
2.24819
2.16428
1.63151
1.57642
1.20637
1.17573
0.990043
0.97918
776.91
225.015
58.1829
30.6768
26.7825
21.1146
19.8617
19.5678
19.5817
18.8531
18.4454
16.3847
13.7287
12.672
9.88573
9.20768
7.10671
6.7642
5.28105
5.07616
3.96464
3.82441
2.96711
2.86559
2.19163
2.11841
1.60257
1.55283
1.19501
1.16638
0.987684
0.97709
615.55
321.556
64.7534
29.9244
29.5062
21.7834
19.5954
19.5256
18.7741
17.7128
17.514
15.301
12.3599
11.9409
9.161
8.77176
6.77747
6.49753
5.13243
4.92448
3.89884
3.73951
2.93698
2.81614
2.17929
2.09036
1.59933
1.53908
1.19747
1.16342
0.993103
0.981095
542.473
324.538
65.1072
30.2224
28.6203
21.5712
19.5097
18.7179
18.5749
17.501
17.0653
14.9726
12.3104
11.5758
9.04702
8.50875
6.67375
6.34381
5.05734
4.83046
3.84747
3.68156
2.90452
2.7815
2.16068
2.07164
1.5912
1.53104
1.19666
1.16212
0.995716
0.983112
)
;

boundaryField
{
    back
    {
        type            empty;
    }
    bottom
    {
        type            omegaWallFunction;
        value           nonuniform List<scalar> 
33
(
915.073
915.073
957.033
993.538
993.538
1017.96
1017.96
1028.08
1027.99
1027.99
1029.75
1029.75
1055.95
1072.59
1072.59
1048.78
1048.78
985.785
898.857
898.857
811.416
758.474
758.474
757.519
757.519
782.038
816.542
816.542
850.576
850.576
876.577
890.404
890.404
)
;
    }
    right
    {
        type            cyclicAMI;
        value           nonuniform List<scalar> 
32
(
902.766
137.34
45.5275
26.2553
26.2553
20.5805
18.8253
18.8253
18.2097
17.1726
17.1726
14.5729
11.1199
11.1199
8.1534
8.1534
6.19317
6.19317
4.78664
4.78664
3.67293
3.67293
2.78702
2.78702
2.07432
2.07432
1.52433
1.52433
1.14423
1.14423
0.956931
0.956931
)
;
    }
    top
    {
        type            zeroGradient;
    }
    left
    {
        type            cyclicAMI;
        value           nonuniform List<scalar> 
32
(
902.766
137.34
45.5275
26.2553
26.2553
20.5805
18.8253
18.8253
18.2097
17.1726
17.1726
14.5729
11.1199
11.1199
8.1534
8.1534
6.19317
6.19317
4.78664
4.78664
3.67293
3.67293
2.78702
2.78702
2.07432
2.07432
1.52433
1.52433
1.14423
1.14423
0.956931
0.956931
)
;
    }
    front
    {
        type            empty;
    }
}


// ************************************************************************* //
