/*--------------------------------*- C++ -*----------------------------------*\
  =========                 |
  \\      /  F ield         | OpenFOAM: The Open Source CFD Toolbox
   \\    /   O peration     | Website:  https://openfoam.org
    \\  /    A nd           | Version:  7
     \\/     M anipulation  |
\*---------------------------------------------------------------------------*/
FoamFile
{
    version     2.0;
    format      ascii;
    class       volScalarField;
    location    "0";
    object      p;
}
// * * * * * * * * * * * * * * * * * * * * * * * * * * * * * * * * * * * * * //

dimensions      [0 2 -2 0 0 0 0];

internalField   nonuniform List<scalar> 
1056
(
0.00118333
0.00118122
0.00116525
0.00113981
0.00113562
0.00110385
0.00107214
0.0010658
0.00103518
0.000999912
0.000989953
0.000941167
0.000878496
0.000858508
0.000777002
0.000753671
0.000659357
0.0006351
0.000536736
0.000512994
0.000417367
0.000395381
0.000307678
0.000288826
0.000212639
0.000197892
0.000135137
0.000124181
7.33276e-05
6.53978e-05
3.00162e-05
2.63856e-05
0.00115802
0.00116061
0.00114281
0.00111471
0.00111181
0.00107772
0.00104414
0.00103998
0.0010067
0.00096822
0.000961145
0.00090771
0.000839492
0.000824589
0.000740392
0.000721264
0.000627724
0.000606301
0.000510902
0.000489266
0.000397376
0.000377365
0.000293229
0.000276272
0.000203077
0.000189964
0.000129307
0.000119646
7.00855e-05
6.30959e-05
2.82043e-05
2.496e-05
0.00104661
0.00103782
0.00101604
0.000983979
0.000969294
0.000935784
0.000896341
0.000881369
0.000853608
0.000812314
0.000798162
0.000756133
0.000694138
0.000678818
0.000600385
0.000582969
0.000500274
0.000482515
0.000402011
0.00038533
0.00031029
0.000295705
0.000228521
0.000216716
0.000158888
0.000149984
0.000101709
9.5083e-05
5.46926e-05
4.99781e-05
2.03579e-05
1.82744e-05
0.000681573
0.000664244
0.000642362
0.000611544
0.000606599
0.000570479
0.000536423
0.000506871
0.000500736
0.000473742
0.0004657
0.000435602
0.000396892
0.000387893
0.000343159
0.000331841
0.000285701
0.000273386
0.000230079
0.000218085
0.000179087
0.000168328
0.000134134
0.000125262
9.55794e-05
8.86945e-05
6.22728e-05
5.71848e-05
3.30854e-05
2.97762e-05
1.1164e-05
9.96683e-06
0.000612665
0.000612253
0.000589005
0.000557533
0.000550818
0.000514673
0.000481101
0.000452126
0.000444401
0.000418443
0.000408914
0.000380663
0.000346973
0.000334687
0.000295915
0.000282444
0.000242998
0.000229779
0.000193552
0.000181575
0.000149608
0.000139538
0.000111872
0.000104072
8.00827e-05
7.42465e-05
5.23057e-05
4.80688e-05
2.77405e-05
2.48958e-05
9.22702e-06
7.98769e-06
7.33347e-05
6.34023e-05
4.77311e-05
2.95529e-05
2.45526e-05
5.11552e-06
-1.04971e-05
-1.93661e-05
-2.31916e-05
-2.41243e-05
-2.62568e-05
-2.2791e-05
-1.8086e-05
-2.03611e-05
-1.59862e-05
-1.88698e-05
-1.42689e-05
-1.64273e-05
-1.04136e-05
-1.14421e-05
-4.60781e-06
-5.0225e-06
1.43739e-06
1.08801e-06
5.70255e-06
5.01808e-06
6.05388e-06
5.22792e-06
3.02027e-06
2.36707e-06
-1.09323e-06
-1.30657e-06
-5.61539e-05
-3.49647e-05
-4.79469e-05
-6.17876e-05
-6.76741e-05
-8.2726e-05
-9.28057e-05
-9.86064e-05
-0.00010074
-9.44466e-05
-9.94896e-05
-8.86881e-05
-7.35958e-05
-8.05302e-05
-6.58135e-05
-7.18105e-05
-5.72386e-05
-6.14954e-05
-4.62803e-05
-4.85734e-05
-3.34414e-05
-3.41878e-05
-2.06512e-05
-2.05452e-05
-1.02561e-05
-1.0074e-05
-4.25534e-06
-4.30296e-06
-2.34583e-06
-2.62289e-06
-2.9774e-06
-3.27359e-06
-0.000643898
-0.000643494
-0.00063749
-0.000625999
-0.000621605
-0.000608176
-0.000589001
-0.000562829
-0.000554545
-0.00051664
-0.000505284
-0.000462238
-0.000413083
-0.000400574
-0.000346786
-0.000336543
-0.000283091
-0.000274099
-0.000222692
-0.000214612
-0.000166698
-0.000159818
-0.000117243
-0.000111967
-7.67661e-05
-7.30704e-05
-4.63958e-05
-4.38972e-05
-2.51114e-05
-2.35031e-05
-1.25121e-05
-1.18155e-05
-0.00112953
-0.00114433
-0.00111792
-0.00107858
-0.00107847
-0.00103355
-0.000976533
-0.000911528
-0.000907213
-0.000833312
-0.000825559
-0.000743258
-0.000656913
-0.000644546
-0.00055656
-0.000542477
-0.000456424
-0.000442294
-0.000360946
-0.00034792
-0.000273523
-0.000262343
-0.000196857
-0.000187926
-0.000133017
-0.00012633
-8.2672e-05
-7.78591e-05
-4.49479e-05
-4.15889e-05
-2.07081e-05
-1.91443e-05
-0.00120005
-0.00119517
-0.00116695
-0.00112606
-0.0011225
-0.00107549
-0.00101732
-0.00095223
-0.000942781
-0.00086948
-0.000855923
-0.000775191
-0.000689395
-0.000672728
-0.000584624
-0.000567113
-0.000480345
-0.000463473
-0.000381087
-0.000365811
-0.00029016
-0.000277146
-0.000210139
-0.000199761
-0.000143006
-0.000135236
-8.94281e-05
-8.39139e-05
-4.8648e-05
-4.49931e-05
-2.19023e-05
-2.03952e-05
-0.0012975
-0.00128917
-0.00125272
-0.00120569
-0.00119491
-0.00114296
-0.00109089
-0.0010325
-0.00101731
-0.000950609
-0.000930824
-0.000857596
-0.000776545
-0.000755685
-0.000668018
-0.000648108
-0.000558176
-0.000539272
-0.000451081
-0.000433691
-0.000350331
-0.000335119
-0.000259002
-0.00024655
-0.000179857
-0.000170338
-0.000114527
-0.000107579
-6.28637e-05
-5.80279e-05
-2.7473e-05
-2.53579e-05
-0.00120942
-0.00122421
-0.00119207
-0.00114732
-0.00114883
-0.00109583
-0.00104605
-0.00104606
-0.000987431
-0.000920339
-0.00091673
-0.000840138
-0.0007562
-0.000748159
-0.000658854
-0.00064817
-0.00055718
-0.000544597
-0.0004552
-0.000441749
-0.00035699
-0.000343758
-0.000266301
-0.00025433
-0.000186378
-0.000176482
-0.000119389
-0.000111878
-6.56095e-05
-6.04632e-05
-2.83682e-05
-2.62657e-05
-0.000940565
-0.000938426
-0.0009284
-0.000907838
-0.000899489
-0.000875261
-0.000855767
-0.000838166
-0.000833476
-0.000806853
-0.00079891
-0.000763268
-0.000716736
-0.000703495
-0.000642013
-0.000628401
-0.000557496
-0.000543303
-0.000467182
-0.000452774
-0.000374993
-0.000361316
-0.000285504
-0.000273497
-0.000203408
-0.000193626
-0.000132388
-0.000124766
-7.3497e-05
-6.78919e-05
-3.12492e-05
-2.87351e-05
-0.000644965
-0.000635566
-0.000637957
-0.000634865
-0.000638002
-0.000623775
-0.000610259
-0.000602073
-0.000605678
-0.000602724
-0.000606734
-0.000599877
-0.000581455
-0.000580747
-0.000548032
-0.000544058
-0.0004986
-0.000491372
-0.000435313
-0.000425502
-0.000362021
-0.000350804
-0.000283829
-0.000272732
-0.000206822
-0.000197176
-0.000136769
-0.000129034
-7.65088e-05
-7.07375e-05
-3.22288e-05
-2.96643e-05
-0.00060773
-0.000607017
-0.000610391
-0.000609879
-0.000610842
-0.000601419
-0.000589009
-0.000578902
-0.000580113
-0.00057783
-0.000581462
-0.000579062
-0.00056645
-0.000565452
-0.000538276
-0.000534102
-0.000493128
-0.000486058
-0.000432917
-0.000423741
-0.000361654
-0.000351286
-0.000284581
-0.000274157
-0.000207933
-0.000198592
-0.00013777
-0.000130044
-7.71275e-05
-7.11929e-05
-3.23436e-05
-2.95832e-05
-0.000474547
-0.000475389
-0.00047769
-0.000478585
-0.000478958
-0.000476836
-0.00047176
-0.00046569
-0.000464116
-0.000457272
-0.00045799
-0.00045466
-0.000454099
-0.000455141
-0.000445338
-0.000443787
-0.000420556
-0.000416547
-0.000379988
-0.000373692
-0.000325754
-0.000317842
-0.000262142
-0.000253704
-0.000194946
-0.000187154
-0.000130861
-0.000124197
-7.36696e-05
-6.83798e-05
-3.04742e-05
-2.79855e-05
-0.000420705
-0.000418879
-0.000420573
-0.000420977
-0.000422578
-0.000420506
-0.000415332
-0.000416977
-0.000409103
-0.000398765
-0.000400343
-0.000392557
-0.000385418
-0.000388129
-0.000374972
-0.000377726
-0.000356973
-0.000358025
-0.000326584
-0.000325019
-0.000283157
-0.000279243
-0.000230286
-0.000224791
-0.000172951
-0.000167049
-0.00011688
-0.000111429
-6.58242e-05
-6.13623e-05
-2.68089e-05
-2.47743e-05
-0.000406412
-0.000407076
-0.000408768
-0.000409784
-0.000410015
-0.000408864
-0.000405411
-0.000404183
-0.000397644
-0.000389898
-0.000388205
-0.00038173
-0.000375338
-0.000372763
-0.000363459
-0.000362433
-0.000346814
-0.000344817
-0.000317983
-0.000313766
-0.000275658
-0.000269928
-0.000224043
-0.000217653
-0.000168064
-0.000161932
-0.000113518
-0.000108067
-6.39408e-05
-5.94054e-05
-2.59345e-05
-2.36726e-05
-0.000370435
-0.000370949
-0.000373351
-0.000375283
-0.00037581
-0.000375641
-0.000372298
-0.000372086
-0.00036414
-0.000353346
-0.000351869
-0.000339444
-0.00032432
-0.00032252
-0.000305483
-0.000303923
-0.000284016
-0.000282486
-0.000256603
-0.000254038
-0.000220515
-0.000216937
-0.000178042
-0.000174025
-0.000133231
-0.000129182
-9.0017e-05
-8.61666e-05
-5.04839e-05
-4.7109e-05
-1.97953e-05
-1.81602e-05
-0.000365886
-0.000367503
-0.000370173
-0.000372574
-0.000372736
-0.000373395
-0.000371201
-0.000370684
-0.000363921
-0.000353355
-0.000351569
-0.000337927
-0.000321341
-0.000319023
-0.000300093
-0.000297522
-0.000276075
-0.000273808
-0.000247288
-0.000244545
-0.000210924
-0.000207467
-0.000168991
-0.000165311
-0.000125695
-0.000122092
-8.4608e-05
-8.11279e-05
-4.7418e-05
-4.41517e-05
-1.85898e-05
-1.67885e-05
-0.000343771
-0.000346738
-0.000351932
-0.000357447
-0.000359125
-0.00036333
-0.000365288
-0.000364748
-0.000361605
-0.000350933
-0.000346323
-0.000326854
-0.000301123
-0.000293432
-0.000262094
-0.000255381
-0.000223642
-0.000218446
-0.000186724
-0.000182237
-0.000149862
-0.000145876
-0.0001142
-0.000110908
-8.21837e-05
-7.95425e-05
-5.42526e-05
-5.19289e-05
-2.97517e-05
-2.76715e-05
-1.03858e-05
-9.30439e-06
-0.000300171
-0.000303832
-0.000310874
-0.000319334
-0.000319989
-0.000328093
-0.000333777
-0.000333583
-0.000333952
-0.000322439
-0.000321135
-0.000294037
-0.000254572
-0.000250632
-0.000205427
-0.000200904
-0.000157221
-0.000152856
-0.000113916
-0.000110104
-7.79139e-05
-7.47662e-05
-5.07001e-05
-4.83221e-05
-3.23531e-05
-3.05687e-05
-1.98398e-05
-1.85163e-05
-9.77564e-06
-8.83722e-06
-1.1146e-06
-8.16942e-07
-0.000293774
-0.000299031
-0.000305667
-0.000313929
-0.000316045
-0.000324054
-0.000329948
-0.000330939
-0.00033159
-0.000322
-0.000317503
-0.000292591
-0.000255848
-0.00024473
-0.000199963
-0.000190064
-0.000145717
-0.000137367
-9.80422e-05
-9.14088e-05
-6.05445e-05
-5.59137e-05
-3.43633e-05
-3.1773e-05
-1.93687e-05
-1.8039e-05
-1.09168e-05
-1.02032e-05
-4.97017e-06
-4.33561e-06
7.94429e-07
1.20286e-06
-0.000169455
-0.000172601
-0.000178189
-0.000186585
-0.000187541
-0.000196815
-0.000203644
-0.00020418
-0.000205257
-0.000196919
-0.000193883
-0.000170108
-0.000133631
-0.000124887
-8.15783e-05
-7.22213e-05
-3.10004e-05
-2.28021e-05
1.04024e-05
1.60412e-05
3.61548e-05
3.87486e-05
4.49949e-05
4.50756e-05
3.99176e-05
3.88173e-05
2.83692e-05
2.71689e-05
1.69299e-05
1.60926e-05
1.06512e-05
1.02307e-05
-0.000134446
-0.00014617
-0.000151662
-0.000160198
-0.000159859
-0.000169222
-0.000175755
-0.000175007
-0.00017534
-0.000166251
-0.000162545
-0.000137963
-0.000102561
-9.27171e-05
-5.17395e-05
-4.10963e-05
-3.20459e-06
6.36477e-06
3.53643e-05
4.21668e-05
5.75663e-05
6.08909e-05
6.20746e-05
6.23374e-05
5.27622e-05
5.13869e-05
3.69507e-05
3.53201e-05
2.15345e-05
2.04534e-05
1.24067e-05
1.20871e-05
9.38745e-05
9.28634e-05
8.95769e-05
8.27021e-05
7.96811e-05
7.08332e-05
6.65638e-05
6.75801e-05
6.67969e-05
7.58624e-05
8.03394e-05
9.50781e-05
0.000118014
0.000125673
0.000150124
0.000156385
0.00017334
0.000177563
0.000182499
0.00018379
0.000173823
0.000172076
0.000148268
0.000144919
0.000112808
0.000108951
7.52997e-05
7.17876e-05
4.24078e-05
3.98447e-05
2.12012e-05
2.003e-05
0.000425225
0.000440001
0.000434493
0.00042278
0.000426235
0.000413397
0.000404942
0.000402222
0.000406354
0.000405937
0.000411684
0.000410102
0.000409524
0.000410934
0.000400835
0.000401366
0.000378365
0.00037759
0.000341599
0.000339324
0.00029161
0.000287791
0.000231632
0.000226719
0.000168643
0.000163459
0.000109854
0.000105067
6.08607e-05
5.69447e-05
2.84168e-05
2.64419e-05
0.000497433
0.000494052
0.000489298
0.000479163
0.000478281
0.000467891
0.000462312
0.000464065
0.000464194
0.000465859
0.000469134
0.000468734
0.000464094
0.000465445
0.000450107
0.000449024
0.000420093
0.000416482
0.000374866
0.000369081
0.000316765
0.000309338
0.000249683
0.000241691
0.000180518
0.000173273
0.000116984
0.00011109
6.43854e-05
6.0124e-05
2.92545e-05
2.73537e-05
0.000863479
0.000870101
0.000861404
0.00084448
0.000844379
0.000825964
0.000812516
0.000813222
0.000805073
0.0007942
0.000794037
0.000773394
0.000740889
0.000734572
0.000684003
0.000674175
0.000606906
0.000594632
0.000516117
0.000502597
0.000417957
0.00040431
0.000318597
0.000306087
0.000224958
0.000214585
0.000143715
0.000135753
7.82847e-05
7.25505e-05
3.38354e-05
3.12008e-05
0.000912511
0.000905343
0.000895366
0.000876801
0.000878223
0.000858942
0.000845851
0.00084786
0.000839254
0.000826483
0.000827756
0.000803379
0.000763419
0.000761014
0.000702932
0.000696582
0.000622855
0.000613061
0.000529206
0.00051708
0.000428103
0.000415009
0.000326062
0.000313561
0.000230196
0.000219605
0.000147151
0.000138994
8.01359e-05
7.43785e-05
3.41183e-05
3.16113e-05
0.00116819
0.00116508
0.00115069
0.0011269
0.00111671
0.00109447
0.00107449
0.00105883
0.00105845
0.0010338
0.00102518
0.000994826
0.000936448
0.00092607
0.000842689
0.000827114
0.000729792
0.000711357
0.000606786
0.000587569
0.000481055
0.000462855
0.000360027
0.000344392
0.000250892
0.000238643
0.000159373
0.000150261
8.64667e-05
7.99141e-05
3.54268e-05
3.24579e-05
0.00122532
0.00122581
0.00121075
0.00118539
0.00118504
0.00115609
0.00113107
0.00113028
0.00110781
0.00107891
0.00107569
0.00102941
0.000963423
0.000953214
0.000866354
0.000850928
0.000748835
0.000729898
0.000620428
0.000600176
0.000489939
0.000470319
0.000365511
0.000348204
0.00025442
0.000240525
0.000161849
0.000151353
8.81396e-05
8.03973e-05
3.67279e-05
3.33045e-05
0.0012389
0.00123491
0.00121942
0.00119515
0.00119059
0.00116294
0.00113914
0.00111771
0.00111297
0.00108542
0.00107612
0.00103244
0.000970666
0.00095227
0.000869276
0.000846657
0.000748146
0.000723742
0.00061763
0.000593547
0.000486331
0.000464394
0.000362127
0.00034374
0.000251948
0.000237726
0.000160654
0.000149893
8.7928e-05
7.97962e-05
3.72325e-05
3.36428e-05
)
;

boundaryField
{
    back
    {
        type            empty;
    }
    bottom
    {
        type            zeroGradient;
    }
    right
    {
        type            cyclicAMI;
        value           nonuniform List<scalar> 
32
(
0.00122207
0.0012171
0.00120195
0.00117329
0.00117329
0.00113963
0.00110982
0.00110982
0.00108424
0.00105131
0.00105131
0.00099795
0.000919193
0.000919193
0.000816145
0.000816145
0.000696914
0.000696914
0.000571338
0.000571338
0.000446296
0.000446296
0.000329371
0.000329371
0.000226569
0.000226569
0.000142639
0.000142639
7.54087e-05
7.54087e-05
2.36189e-05
2.36189e-05
)
;
    }
    top
    {
        type            fixedValue;
        value           uniform 0;
    }
    left
    {
        type            cyclicAMI;
        value           nonuniform List<scalar> 
32
(
0.00122207
0.0012171
0.00120195
0.00117329
0.00117329
0.00113963
0.00110982
0.00110982
0.00108424
0.00105131
0.00105131
0.00099795
0.000919193
0.000919193
0.000816145
0.000816145
0.000696914
0.000696914
0.000571338
0.000571338
0.000446296
0.000446296
0.000329371
0.000329371
0.000226569
0.000226569
0.000142639
0.000142639
7.54087e-05
7.54087e-05
2.36189e-05
2.36189e-05
)
;
    }
    front
    {
        type            empty;
    }
}


// ************************************************************************* //
