/*--------------------------------*- C++ -*----------------------------------*\
  =========                 |
  \\      /  F ield         | OpenFOAM: The Open Source CFD Toolbox
   \\    /   O peration     | Website:  https://openfoam.org
    \\  /    A nd           | Version:  7
     \\/     M anipulation  |
\*---------------------------------------------------------------------------*/
FoamFile
{
    version     2.0;
    format      ascii;
    class       volVectorField;
    location    "0";
    object      U;
}
// * * * * * * * * * * * * * * * * * * * * * * * * * * * * * * * * * * * * * //

dimensions      [0 1 -1 0 0 0 0];

internalField   nonuniform List<vector> 
1056
(
(0.0174715 0.00276737 2.07656e-25)
(0.0234599 0.00340177 4.70659e-26)
(0.0331414 0.0041892 -3.7697e-22)
(0.0392891 0.00412261 9.42318e-24)
(0.0400319 0.00407064 9.27277e-24)
(0.0454791 0.00365103 1.81054e-22)
(0.0516784 0.00315538 0)
(0.0531486 0.00305531 0)
(0.0612662 0.00266349 0)
(0.0712349 0.00248593 1.53666e-22)
(0.0740134 0.00248381 1.57702e-22)
(0.0855563 0.00253912 -4.97167e-22)
(0.0965364 0.00264952 -8.55381e-22)
(0.0997863 0.00268021 -1.19966e-21)
(0.109453 0.00267029 -1.25137e-21)
(0.111963 0.00264866 -1.11398e-21)
(0.120251 0.00245438 -4.88845e-22)
(0.122202 0.00239588 -3.10303e-22)
(0.129765 0.00208347 -1.55702e-22)
(0.131448 0.00202243 -1.40818e-22)
(0.138591 0.00167405 9.94358e-23)
(0.140074 0.00162276 1.16345e-22)
(0.146731 0.00127899 4.5453e-23)
(0.147993 0.00123692 3.26746e-23)
(0.153949 0.000921838 -5.38233e-24)
(0.15495 0.000889565 -6.88923e-24)
(0.15993 0.000629844 2.54312e-24)
(0.160658 0.000604198 3.17268e-24)
(0.164373 0.000406997 3.35812e-24)
(0.164819 0.000392946 3.42729e-24)
(0.166802 0.000312776 -2.02043e-26)
(0.166972 0.000310735 -1.7022e-25)
(0.0176886 0.00289429 1.83394e-25)
(0.0259337 0.00391744 4.57316e-26)
(0.0352671 0.00461009 -1.25108e-21)
(0.0413305 0.00446937 3.00192e-23)
(0.0416463 0.00448585 3.16455e-23)
(0.0472982 0.0040132 5.89541e-22)
(0.053926 0.00346218 0)
(0.0545271 0.00346312 0)
(0.0632945 0.00302145 0)
(0.0741093 0.00281895 4.34045e-22)
(0.0754957 0.00285295 4.61611e-22)
(0.0877786 0.00287845 -8.55508e-22)
(0.0995452 0.00292642 -8.61558e-22)
(0.101276 0.00297726 -9.41513e-22)
(0.111391 0.00287418 -9.79411e-22)
(0.112988 0.0028924 -8.25231e-22)
(0.121496 0.00260684 -4.09896e-22)
(0.122972 0.00259125 -3.23799e-22)
(0.130606 0.0022055 -1.71052e-22)
(0.132014 0.00217246 -1.49192e-22)
(0.139157 0.00177086 1.20131e-22)
(0.140466 0.00173181 1.32157e-22)
(0.1471 0.00135117 4.32366e-23)
(0.148243 0.00131199 3.12962e-23)
(0.154179 0.000971965 -1.16895e-23)
(0.155095 0.000938939 -1.26989e-23)
(0.16007 0.000661903 4.49652e-24)
(0.160732 0.000635794 4.91989e-24)
(0.164458 0.000425787 4.87912e-24)
(0.164857 0.000412088 4.86151e-24)
(0.166856 0.000326082 5.65777e-25)
(0.167005 0.000325668 4.9675e-25)
(0.0191329 0.0036355 1.77178e-22)
(0.0337109 0.00610834 -7.34404e-22)
(0.043166 0.00702711 -4.41177e-21)
(0.0485925 0.00696753 -1.60368e-21)
(0.0504325 0.00684247 1.44218e-23)
(0.0550942 0.00641464 2.20104e-21)
(0.0609055 0.00582506 5.32941e-22)
(0.0631905 0.00565923 4.47237e-22)
(0.069707 0.00519852 2.34176e-22)
(0.0792241 0.00486692 1.08457e-21)
(0.0818935 0.00482687 6.43043e-22)
(0.0926783 0.00470523 -1.4708e-21)
(0.101834 0.00455607 -9.18679e-22)
(0.1052 0.00455927 -2.25662e-22)
(0.113899 0.00422553 -1.51789e-22)
(0.115915 0.00416671 -1.15382e-22)
(0.123726 0.00366321 -1.04577e-23)
(0.125175 0.00356968 -3.62386e-23)
(0.132444 0.0029924 -2.427e-22)
(0.133681 0.00289732 -1.84862e-22)
(0.140597 0.00233414 1.7546e-22)
(0.141681 0.00224986 1.50411e-22)
(0.148166 0.00173746 4.19707e-23)
(0.149078 0.00166804 3.08102e-23)
(0.15491 0.00122597 -2.49603e-23)
(0.155627 0.00117476 -1.80356e-23)
(0.160522 0.000824239 5.15021e-24)
(0.161041 0.000787182 6.49377e-24)
(0.164708 0.000528909 8.4666e-24)
(0.165024 0.000509403 7.2637e-24)
(0.166989 0.000394684 2.92396e-24)
(0.16711 0.000387935 2.242e-24)
(0.0300663 0.00589524 4.69826e-21)
(0.0418063 0.00788 2.66158e-21)
(0.0536952 0.00938679 -1.50288e-21)
(0.0600607 0.00931132 -3.92865e-22)
(0.0603688 0.00932181 -3.18459e-22)
(0.0655706 0.00876436 1.09758e-21)
(0.0712997 0.00803455 5.36358e-24)
(0.0783701 0.00730792 1.85781e-22)
(0.0790444 0.00728862 2.18344e-22)
(0.0878536 0.00670111 6.65966e-22)
(0.0889618 0.00667636 6.53144e-22)
(0.0989128 0.00624567 -2.51674e-22)
(0.108738 0.00583644 -3.01086e-22)
(0.109992 0.00579151 -3.47001e-22)
(0.11848 0.00524847 -2.95881e-22)
(0.119734 0.00516229 -2.33583e-22)
(0.126969 0.00446645 -3.34174e-23)
(0.128166 0.00435241 1.08896e-23)
(0.134791 0.00360235 -4.56356e-23)
(0.135938 0.00348604 -6.37742e-23)
(0.142257 0.00277557 9.27169e-23)
(0.143322 0.00267272 1.01951e-22)
(0.149284 0.00204479 2.95762e-23)
(0.150215 0.00196105 1.75586e-23)
(0.155612 0.00143473 -1.71017e-23)
(0.15636 0.00137198 -1.44209e-23)
(0.160924 0.000961766 6.65617e-24)
(0.161464 0.000918452 7.1367e-24)
(0.164899 0.000625255 6.32357e-24)
(0.165219 0.000601424 5.24459e-24)
(0.167051 0.00046386 9.69507e-25)
(0.167166 0.000454538 1.01632e-24)
(0.0329295 0.00646643 5.30739e-21)
(0.0437839 0.00825151 2.40203e-21)
(0.0554835 0.00970025 -8.43209e-22)
(0.061761 0.00960832 -2.86196e-22)
(0.0623453 0.0095668 -1.59487e-22)
(0.0675246 0.00899302 7.2719e-22)
(0.0731457 0.00828336 6.87868e-24)
(0.0798755 0.00758889 1.96144e-22)
(0.0812427 0.00748612 2.74512e-22)
(0.08957 0.00692753 5.27066e-22)
(0.0914694 0.00684389 4.74283e-22)
(0.100702 0.00642626 -1.12043e-22)
(0.109722 0.00600884 -3.7142e-22)
(0.111585 0.00592205 -4.22231e-22)
(0.119476 0.00536897 -3.25997e-22)
(0.121027 0.00524085 -2.27979e-22)
(0.127868 0.00454581 3.33984e-23)
(0.129213 0.00439666 3.74987e-23)
(0.135552 0.00365585 -3.77474e-23)
(0.136776 0.00351361 -3.20459e-23)
(0.142864 0.00281374 7.7846e-23)
(0.143957 0.00269271 7.37113e-23)
(0.149736 0.00207248 2.41441e-23)
(0.150656 0.00197758 1.55104e-23)
(0.155918 0.00145573 -1.40826e-23)
(0.156632 0.00138718 -1.0302e-23)
(0.161103 0.0009769 6.98668e-24)
(0.161609 0.000931297 6.14735e-24)
(0.164982 0.00063886 4.41057e-24)
(0.16528 0.000614282 3.81634e-24)
(0.167074 0.000474453 5.94785e-25)
(0.167185 0.000465715 6.38749e-25)
(0.040756 0.00736723 1.20725e-21)
(0.0519072 0.00912661 -6.50954e-26)
(0.0665138 0.0110501 -2.47278e-22)
(0.0723942 0.0108216 1.62791e-22)
(0.0731685 0.0107326 1.54647e-22)
(0.07784 0.0100615 1.72672e-23)
(0.0828181 0.0092803 -4.57039e-24)
(0.0886055 0.0084912 -2.8002e-23)
(0.0900517 0.00832532 -4.08665e-23)
(0.0971122 0.0076226 1.23677e-22)
(0.0989647 0.00747033 1.37768e-22)
(0.106944 0.00688573 -1.06385e-23)
(0.114489 0.00634093 -1.08117e-22)
(0.116606 0.00619034 -9.78668e-23)
(0.123371 0.0055532 -6.18906e-23)
(0.12499 0.00538957 -5.25786e-23)
(0.131015 0.00464788 5.76606e-23)
(0.132283 0.00448491 6.00634e-23)
(0.138003 0.00371933 -4.38937e-23)
(0.139094 0.00357268 -4.71723e-23)
(0.144685 0.0028583 1.25908e-23)
(0.145647 0.00273557 1.3918e-23)
(0.151011 0.00210771 1.35921e-24)
(0.151828 0.00201127 1.80708e-24)
(0.156739 0.0014877 -2.32172e-25)
(0.157389 0.00141712 2.49302e-25)
(0.161579 0.0010064 2.55576e-24)
(0.16205 0.000959208 2.61284e-24)
(0.165209 0.000669147 3.83706e-25)
(0.16549 0.000642687 4.53985e-25)
(0.167154 0.000496736 3.66426e-26)
(0.167258 0.000486658 4.10678e-26)
(0.039556 0.00689074 1.3006e-21)
(0.0553649 0.00933805 -4.66466e-26)
(0.0689374 0.010965 -2.79897e-22)
(0.0747035 0.0106145 1.75917e-22)
(0.0749371 0.0105893 1.76944e-22)
(0.0797306 0.00989 1.81156e-23)
(0.0849966 0.00905392 -1.83505e-23)
(0.0853631 0.00900485 -2.2575e-23)
(0.0918477 0.00815376 -1.03707e-22)
(0.0995029 0.00740116 1.88501e-22)
(0.100252 0.00733853 1.93865e-22)
(0.10876 0.00670279 -6.39834e-24)
(0.11688 0.006108 -4.47328e-23)
(0.117869 0.00602205 -3.52019e-23)
(0.124974 0.00535324 -4.63872e-24)
(0.125924 0.00524297 6.88707e-24)
(0.132111 0.00449054 6.73836e-23)
(0.133027 0.00436606 6.98369e-23)
(0.13878 0.00360546 -5.48528e-23)
(0.139683 0.00348273 -5.7827e-23)
(0.145226 0.00278136 -2.92275e-24)
(0.146089 0.00267232 -2.25687e-24)
(0.151367 0.00205961 3.85058e-24)
(0.152138 0.00197069 4.08923e-24)
(0.156956 0.00146097 5.44703e-24)
(0.157586 0.0013943 5.56264e-24)
(0.161698 0.000994223 6.96401e-25)
(0.16216 0.000948915 7.92409e-25)
(0.16526 0.000666025 8.06339e-25)
(0.165534 0.000640399 8.36232e-25)
(0.167166 0.000494939 2.50989e-26)
(0.167266 0.000485148 2.88513e-26)
(0.0443683 0.00612224 -1.76012e-26)
(0.0623997 0.0085594 6.65703e-23)
(0.0779734 0.0101705 -1.54671e-24)
(0.0841628 0.0100567 -1.16447e-24)
(0.0855895 0.00982557 -1.37435e-24)
(0.0892832 0.00923285 -5.1838e-23)
(0.0933394 0.00849079 -5.46722e-23)
(0.0977726 0.00774432 -1.71798e-22)
(0.0994616 0.00749843 -2.73427e-22)
(0.105566 0.00676254 1.99268e-22)
(0.107318 0.00656821 1.75415e-22)
(0.114069 0.00602344 8.87474e-23)
(0.120088 0.00549476 1.49173e-22)
(0.122129 0.0053775 2.46415e-22)
(0.127903 0.00478028 2.27421e-22)
(0.129212 0.00465391 2.23348e-22)
(0.134582 0.00399929 1.3038e-22)
(0.135578 0.00386053 9.56639e-23)
(0.14076 0.00320554 -5.91904e-23)
(0.141642 0.00307795 -5.99878e-23)
(0.146744 0.00247713 -5.67216e-23)
(0.14754 0.00237095 -4.20317e-23)
(0.152468 0.00184576 3.23206e-24)
(0.153154 0.00176354 5.07935e-24)
(0.157693 0.00132438 1.86454e-23)
(0.158247 0.00126451 1.29674e-23)
(0.162139 0.000916487 1.1385e-24)
(0.162547 0.000876021 1.29807e-24)
(0.165476 0.000627629 1.37612e-24)
(0.165722 0.000603909 1.50075e-24)
(0.167249 0.000468331 4.55594e-25)
(0.167342 0.000458752 2.97139e-25)
(0.0429098 0.00346777 9.81204e-22)
(0.0620689 0.00455033 7.3427e-22)
(0.0819297 0.00590342 1.00726e-21)
(0.0896788 0.00552163 -8.47467e-22)
(0.0899408 0.0055113 -8.82846e-22)
(0.0947364 0.00542239 -2.30671e-22)
(0.0992445 0.00498671 -2.02548e-22)
(0.104188 0.00457328 9.62342e-23)
(0.104665 0.00453107 7.12374e-23)
(0.110361 0.00414926 8.8858e-23)
(0.111047 0.0040977 8.68142e-23)
(0.117329 0.0037841 1.18225e-24)
(0.123607 0.00350682 7.94154e-23)
(0.124465 0.00346533 7.8026e-23)
(0.13024 0.00317624 7.12455e-23)
(0.13112 0.00312488 7.02969e-23)
(0.136333 0.00278145 3.01922e-23)
(0.137181 0.00271622 2.96482e-23)
(0.142087 0.00233108 -2.87468e-23)
(0.142911 0.00225907 -2.83928e-23)
(0.147694 0.00187223 -7.30837e-24)
(0.148482 0.00180351 -6.39315e-24)
(0.153109 0.00144355 -3.05362e-24)
(0.153819 0.00138428 -3.33528e-24)
(0.158106 0.00106876 7.65771e-24)
(0.15869 0.00102199 7.38402e-24)
(0.162386 0.000762136 -1.20582e-24)
(0.162814 0.000729375 -9.31964e-25)
(0.165601 0.00053818 2.4734e-24)
(0.165853 0.000518001 2.35179e-24)
(0.167303 0.000404666 7.35394e-25)
(0.167392 0.000397158 4.80383e-25)
(0.0434231 0.0031745 1.08116e-21)
(0.0619321 0.00396349 7.94765e-22)
(0.0824187 0.00527764 1.16302e-21)
(0.0902354 0.00493049 -1.07049e-21)
(0.0906617 0.00493426 -1.13957e-21)
(0.0954567 0.00488878 -2.28056e-22)
(0.0998877 0.00449963 -1.61948e-22)
(0.104662 0.00413876 1.61104e-22)
(0.105368 0.00408961 1.16684e-22)
(0.110835 0.00375696 3.91174e-23)
(0.111782 0.00370029 3.99598e-23)
(0.117785 0.00342851 1.71505e-24)
(0.123765 0.003202 6.37172e-23)
(0.124881 0.00314977 6.3051e-23)
(0.130452 0.00291313 5.79025e-23)
(0.131491 0.00285629 5.80166e-23)
(0.136571 0.00256526 1.38617e-23)
(0.137504 0.00249823 1.43351e-23)
(0.142313 0.00216035 -1.43184e-23)
(0.143181 0.00208986 -1.55434e-23)
(0.147887 0.0017427 3.88464e-24)
(0.148693 0.00167779 4.5122e-24)
(0.153263 0.00134988 -8.56324e-24)
(0.153971 0.00129548 -8.98148e-24)
(0.158217 0.00100444 4.14696e-24)
(0.15879 0.000962497 4.47085e-24)
(0.162457 0.000720424 -8.26504e-25)
(0.162872 0.000691521 -6.38779e-25)
(0.165636 0.000513531 2.30896e-24)
(0.16588 0.00049537 2.14438e-24)
(0.167317 0.000385208 7.26938e-25)
(0.167405 0.000376924 4.73309e-25)
(0.0351735 -0.00116123 -1.2097e-21)
(0.0553222 -0.000611239 1.35404e-21)
(0.0799829 -0.000336051 -6.85657e-22)
(0.0919845 0.000205292 -1.73042e-22)
(0.0928052 0.000268741 -2.52068e-22)
(0.0970474 0.000455324 -9.82259e-22)
(0.10081 0.000665343 4.19759e-22)
(0.104901 0.000687986 3.49886e-22)
(0.10602 0.000690216 2.5706e-22)
(0.111091 0.000721699 -9.43069e-23)
(0.112538 0.000763314 -9.95926e-23)
(0.118241 0.000866617 -2.62881e-23)
(0.12391 0.00102412 2.29918e-22)
(0.125397 0.00107669 2.70755e-22)
(0.130791 0.00119635 1.88268e-22)
(0.131947 0.00122074 1.67804e-22)
(0.136963 0.00123654 5.61586e-23)
(0.13792 0.00123629 3.41073e-23)
(0.142721 0.00115784 4.94559e-24)
(0.143571 0.00114535 1.3032e-23)
(0.14827 0.00101259 5.82078e-23)
(0.149033 0.000995042 4.90892e-23)
(0.153583 0.000838925 -5.30031e-23)
(0.154239 0.000820094 -5.51218e-23)
(0.158458 0.000662094 -5.38034e-24)
(0.158984 0.000644406 -3.57818e-24)
(0.162616 0.000500834 6.5541e-24)
(0.162999 0.000487092 8.48746e-24)
(0.165725 0.000377142 -3.36627e-24)
(0.165953 0.00036616 -3.55532e-24)
(0.167363 0.000285813 0)
(0.167447 0.000280927 0)
(0.0268896 -0.000909517 -6.1568e-21)
(0.0477991 -0.00058736 1.1673e-21)
(0.0732892 -0.000790908 -3.02568e-21)
(0.0894226 -0.000524059 2.36334e-21)
(0.0896698 -0.000473364 2.21411e-21)
(0.0956567 -0.000247419 -1.20015e-21)
(0.100276 0.000204512 -2.50029e-22)
(0.10049 0.000240716 -2.28266e-22)
(0.105281 0.000351961 6.15928e-22)
(0.110682 0.000385264 -3.98307e-22)
(0.111163 0.000424521 -3.74956e-22)
(0.117399 0.000509922 -2.59986e-22)
(0.123963 0.000677826 4.10399e-22)
(0.124555 0.000713113 4.1477e-22)
(0.130692 0.000876043 1.38751e-22)
(0.131335 0.000908023 1.27615e-22)
(0.136814 0.000970771 5.88246e-23)
(0.137489 0.000992812 4.31286e-23)
(0.142554 0.000947901 9.9908e-24)
(0.143252 0.000961127 1.44134e-23)
(0.148109 0.000851333 9.59863e-23)
(0.148803 0.000858134 8.43869e-23)
(0.153446 0.000719262 -1.01529e-22)
(0.154089 0.000721116 -9.43282e-23)
(0.158359 0.000577073 -2.63494e-24)
(0.158901 0.000575158 -1.019e-24)
(0.162561 0.000443513 1.9199e-23)
(0.162963 0.000439975 1.71363e-23)
(0.165703 0.00034067 -7.99235e-24)
(0.165942 0.000334978 -7.20211e-24)
(0.16736 0.000258363 0)
(0.167445 0.000252857 0)
(0.00644263 -0.00100019 -1.35669e-20)
(0.0184212 -0.00169237 -9.53292e-21)
(0.0418367 -0.00293691 -2.54919e-21)
(0.0658455 -0.00387251 -6.65148e-23)
(0.072818 -0.00396552 2.22015e-21)
(0.0876885 -0.00367328 2.20449e-21)
(0.0955934 -0.00275613 -1.41659e-21)
(0.10075 -0.0020135 -8.56474e-22)
(0.102384 -0.00182171 2.62329e-22)
(0.107149 -0.00151916 -6.41736e-22)
(0.108472 -0.00146932 -1.02447e-21)
(0.11398 -0.00130825 -8.60414e-22)
(0.119642 -0.00105866 -8.28589e-23)
(0.121794 -0.000987076 6.17003e-22)
(0.127888 -0.000636236 3.78902e-22)
(0.129492 -0.000540146 1.70496e-22)
(0.135242 -0.000228061 -5.41392e-23)
(0.136371 -0.000158636 -4.95083e-23)
(0.141677 3.88228e-05 8.11473e-23)
(0.142576 7.77317e-05 1.10581e-22)
(0.147603 0.000175851 1.72584e-22)
(0.148381 0.000196176 1.1102e-22)
(0.153165 0.000230291 -1.75473e-22)
(0.153831 0.000239664 -1.42112e-22)
(0.15822 0.000234592 -1.29848e-23)
(0.158757 0.000237623 9.33916e-25)
(0.162507 0.000210569 2.19397e-23)
(0.162899 0.000211863 1.03899e-23)
(0.165697 0.000185254 -2.34544e-24)
(0.165931 0.0001831 -3.40894e-24)
(0.167376 0.000140795 -4.00572e-24)
(0.167464 0.000138565 -2.58223e-24)
(-0.00672571 0.00221202 -1.21164e-20)
(-0.00428686 0.00262948 -7.00379e-21)
(0.00562892 0.00231757 -1.55909e-21)
(0.026159 0.000494937 3.56346e-21)
(0.0281858 0.000282694 3.89662e-21)
(0.0523002 -0.00168936 6.55131e-22)
(0.0738183 -0.00275268 -5.47923e-23)
(0.0895506 -0.00282765 -1.39901e-21)
(0.0910208 -0.00271935 -1.32924e-21)
(0.100919 -0.00226141 -6.54861e-22)
(0.102003 -0.0021777 -3.6832e-22)
(0.10934 -0.00184212 -3.7033e-22)
(0.11608 -0.00166385 9.43022e-22)
(0.117326 -0.00163293 7.75485e-22)
(0.124189 -0.00142874 1.49791e-23)
(0.125574 -0.00135974 -3.52672e-23)
(0.132239 -0.00108211 -2.40216e-22)
(0.133528 -0.000997632 -1.63918e-22)
(0.139584 -0.000732999 1.51531e-22)
(0.140705 -0.000659969 1.73813e-22)
(0.14619 -0.000460887 1.89215e-22)
(0.147164 -0.000404508 1.27221e-22)
(0.152229 -0.000265437 -1.11206e-22)
(0.153047 -0.000224708 -9.8922e-23)
(0.157649 -0.000129203 8.35891e-24)
(0.158285 -0.000102942 -1.28024e-24)
(0.162209 -4.27297e-05 -4.9842e-24)
(0.162651 -2.64776e-05 1.29778e-24)
(0.165579 1.36853e-05 -1.55496e-23)
(0.165832 1.95528e-05 -1.32113e-23)
(0.167354 1.32941e-05 5.83168e-25)
(0.167445 1.55234e-05 3.84037e-25)
(-0.00701583 0.00232921 -9.79049e-21)
(-0.00610768 0.00290907 -8.52268e-21)
(0.000631097 0.00300182 -7.90202e-22)
(0.0177899 0.00141697 2.41105e-21)
(0.0195495 0.00121934 2.60752e-21)
(0.0431013 -0.000932664 1.12614e-21)
(0.0665221 -0.00249736 7.56842e-22)
(0.0850135 -0.00293902 -1.50814e-21)
(0.086769 -0.00288541 -1.39645e-21)
(0.0982624 -0.00244304 -6.27985e-22)
(0.09967 -0.00232905 -6.10728e-22)
(0.10747 -0.00192558 -7.22812e-22)
(0.114277 -0.00174012 1.20993e-21)
(0.115589 -0.00172115 8.97397e-22)
(0.122425 -0.00156165 1.25591e-22)
(0.123992 -0.00150393 7.40527e-23)
(0.130835 -0.00124321 -3.04118e-22)
(0.132303 -0.00115923 -2.98143e-22)
(0.138603 -0.000880972 1.24335e-22)
(0.139823 -0.000805889 2.12299e-22)
(0.14552 -0.000585425 1.49729e-22)
(0.146539 -0.000526991 1.11019e-22)
(0.15178 -0.000366715 -6.80345e-23)
(0.152629 -0.000322305 -8.05741e-23)
(0.157368 -0.000206921 -1.52624e-24)
(0.158036 -0.000175668 2.72066e-24)
(0.162056 -9.89763e-05 -7.95604e-24)
(0.16253 -7.81482e-05 -9.06241e-24)
(0.165516 -2.45961e-05 -1.37921e-23)
(0.165791 -1.54828e-05 -1.04405e-23)
(0.167343 -1.60984e-05 5.99046e-25)
(0.167441 -1.53866e-05 3.83613e-25)
(-0.00741944 0.00273897 8.43506e-21)
(-0.0100975 0.00390272 6.40717e-21)
(-0.0113838 0.00488496 -1.86215e-21)
(-0.00661591 0.00453445 -1.11387e-24)
(-0.00372937 0.00415635 -1.95826e-24)
(0.0104163 0.0025087 1.67817e-21)
(0.0305758 0.000519927 -1.29322e-22)
(0.0537892 -0.00114331 1.57093e-21)
(0.0608008 -0.00154348 1.68309e-21)
(0.0815572 -0.00227002 1.72679e-22)
(0.0858012 -0.00223954 -7.80963e-22)
(0.099165 -0.00224262 -1.96158e-21)
(0.108177 -0.00208332 -3.37129e-22)
(0.110309 -0.00203795 5.77419e-22)
(0.118045 -0.00194387 9.43816e-22)
(0.119725 -0.00192098 7.328e-22)
(0.127352 -0.00175395 -3.03215e-22)
(0.128865 -0.0016928 -3.02254e-22)
(0.136082 -0.00143215 4.62402e-23)
(0.137338 -0.00135998 2.56873e-23)
(0.143826 -0.00109087 -8.98522e-23)
(0.144858 -0.00102693 -3.391e-23)
(0.150678 -0.00078959 -6.62836e-23)
(0.151521 -0.000736054 -7.5321e-23)
(0.156695 -0.000534791 1.29052e-23)
(0.157346 -0.000495356 1.9003e-23)
(0.161694 -0.000337206 -1.40451e-23)
(0.162151 -0.000309511 -1.7689e-23)
(0.165364 -0.000190108 1.30394e-25)
(0.165633 -0.000176935 4.20271e-25)
(0.167308 -0.000140524 0)
(0.167409 -0.00013635 0)
(-0.00577768 0.00218686 1.5945e-20)
(-0.0096357 0.00373454 -7.24652e-21)
(-0.0126288 0.00505242 -2.7947e-21)
(-0.011704 0.0051779 -4.5067e-21)
(-0.0116117 0.00516784 -3.59572e-21)
(-0.00491436 0.00423034 2.68517e-21)
(0.00896709 0.00258833 2.81041e-21)
(0.0102005 0.00245249 2.40379e-21)
(0.0329814 0.00051345 -9.9177e-22)
(0.0583497 -0.000943619 3.67786e-22)
(0.0612973 -0.00109836 2.25985e-22)
(0.0836992 -0.00179488 -3.30411e-22)
(0.100064 -0.00206164 5.15821e-22)
(0.101997 -0.00206846 6.92344e-22)
(0.113092 -0.00212126 9.02221e-22)
(0.114601 -0.00211073 8.39923e-22)
(0.123592 -0.00202737 -5.85967e-24)
(0.12502 -0.00199417 -1.15287e-22)
(0.133097 -0.00179507 3.99408e-23)
(0.134424 -0.00173695 5.89595e-23)
(0.141657 -0.00147332 -5.84463e-23)
(0.142795 -0.00140859 -7.10695e-23)
(0.14921 -0.00113232 -8.55509e-25)
(0.150143 -0.00107504 -9.58033e-25)
(0.155761 -0.000812512 0)
(0.156484 -0.000768117 0)
(0.161169 -0.000545304 8.02427e-25)
(0.161674 -0.000513558 7.7568e-25)
(0.165131 -0.000338556 -1.82021e-24)
(0.165424 -0.000321908 -1.87974e-24)
(0.167242 -0.000251485 0)
(0.167349 -0.000244212 0)
(-0.00578556 0.00222503 1.17028e-20)
(-0.0083547 0.00326008 -1.00795e-21)
(-0.0119602 0.00477982 -5.0701e-21)
(-0.0125844 0.00527181 -1.70912e-20)
(-0.0122673 0.00523797 -5.25659e-21)
(-0.00837668 0.00466409 1.03968e-20)
(0.000647267 0.00349951 4.57764e-21)
(0.00454946 0.0030411 -5.53383e-22)
(0.0225306 0.00131732 -2.35732e-21)
(0.0460491 -0.000293319 1.07418e-21)
(0.0538065 -0.000733195 1.18924e-21)
(0.07798 -0.00169213 -2.12561e-22)
(0.0939345 -0.00203765 -1.68602e-22)
(0.0994278 -0.00210155 7.87793e-22)
(0.109959 -0.00215199 9.75534e-22)
(0.112676 -0.00214904 9.23611e-22)
(0.121497 -0.00210101 2.38259e-22)
(0.123385 -0.00207993 8.65634e-23)
(0.131659 -0.00190336 -3.16942e-23)
(0.133187 -0.00185161 -2.2681e-23)
(0.140731 -0.00158335 -1.65351e-24)
(0.141948 -0.00152188 -8.9762e-24)
(0.148631 -0.00122678 -3.13339e-25)
(0.149596 -0.00116982 -4.23195e-25)
(0.155418 -0.00088737 0)
(0.15616 -0.000840364 0)
(0.160988 -0.000599621 2.29623e-24)
(0.161511 -0.000564001 2.25932e-24)
(0.165058 -0.000374114 -2.63671e-24)
(0.165366 -0.000354707 -2.66318e-24)
(0.167229 -0.000276779 0)
(0.167344 -0.000270756 0)
(-0.00679053 0.00234321 -9.04454e-21)
(-0.0104393 0.00373477 8.533e-21)
(-0.0138094 0.00517772 -4.34527e-21)
(-0.0138476 0.005542 2.95735e-21)
(-0.0137306 0.00552334 1.60517e-21)
(-0.0110286 0.00504846 -1.62502e-21)
(-0.00537155 0.00410479 -3.85335e-21)
(-0.00447463 0.00396149 -3.63873e-21)
(0.00819448 0.00244696 -6.22726e-23)
(0.0285808 0.000766368 1.65113e-21)
(0.0335057 0.000441554 1.90652e-21)
(0.0592586 -0.000950211 3.68465e-22)
(0.0828168 -0.00181606 7.27075e-22)
(0.0870551 -0.00192939 5.30477e-22)
(0.103458 -0.00226065 2.65303e-22)
(0.106169 -0.002283 3.19424e-22)
(0.117507 -0.00233724 6.73752e-23)
(0.119504 -0.00231949 -1.04767e-24)
(0.12871 -0.00220534 -1.31323e-22)
(0.130396 -0.00215441 -8.53742e-23)
(0.138506 -0.00191081 1.77391e-24)
(0.139912 -0.00184164 3.25454e-24)
(0.147079 -0.0015276 3.14451e-23)
(0.148192 -0.00145744 2.37535e-23)
(0.154427 -0.00113046 -8.96428e-25)
(0.155259 -0.00107327 3.50818e-25)
(0.160429 -0.000778448 8.19819e-24)
(0.160997 -0.000736408 5.66991e-24)
(0.164805 -0.000499308 -3.34324e-24)
(0.165133 -0.000476399 -3.16747e-24)
(0.167153 -0.000367125 -2.02984e-24)
(0.167274 -0.000358661 -1.31981e-24)
(-0.00656519 0.00220878 -8.84439e-21)
(-0.0102343 0.00351064 5.893e-21)
(-0.0140044 0.00507307 -2.71347e-21)
(-0.0143122 0.00555837 5.62604e-21)
(-0.0141924 0.00555328 4.20282e-21)
(-0.0117998 0.0051719 -4.04075e-21)
(-0.00678924 0.004308 -3.80496e-21)
(-0.0060984 0.00419301 -3.29213e-21)
(0.00445333 0.00283167 -2.98582e-22)
(0.0226531 0.00116306 1.91578e-21)
(0.0264355 0.000883534 1.95264e-21)
(0.05232 -0.000667177 1.37772e-22)
(0.0780826 -0.00171013 7.02011e-22)
(0.0824388 -0.00184103 4.31919e-22)
(0.100577 -0.00226255 2.4164e-22)
(0.103613 -0.00229733 2.5303e-22)
(0.115727 -0.00237817 4.6401e-23)
(0.117871 -0.00236975 4.26058e-23)
(0.127462 -0.00226999 -7.24611e-23)
(0.129197 -0.00222824 -1.17988e-22)
(0.13762 -0.00198436 -3.59619e-23)
(0.139049 -0.00192165 8.75863e-24)
(0.146479 -0.00159472 3.7953e-23)
(0.14762 -0.00152803 2.50592e-23)
(0.154047 -0.00118479 -3.16848e-24)
(0.154918 -0.00112686 -1.55763e-24)
(0.160216 -0.000817434 9.22861e-24)
(0.160823 -0.000773326 7.56256e-24)
(0.164713 -0.000525381 -2.74363e-24)
(0.165067 -0.000500139 -3.30272e-24)
(0.167131 -0.000384355 -2.08175e-24)
(0.167259 -0.000376652 -1.33051e-24)
(-0.00875669 0.00210543 -1.55482e-21)
(-0.0132147 0.00332502 1.04511e-21)
(-0.0174468 0.00475932 4.22281e-21)
(-0.017489 0.00527568 -5.43084e-22)
(-0.0168126 0.00525536 -5.93192e-22)
(-0.0140012 0.00497929 -3.92414e-22)
(-0.00969724 0.00433835 -5.06667e-22)
(-0.00793632 0.00404168 -1.18995e-21)
(-0.0014232 0.00307324 -5.56936e-22)
(0.011217 0.00158575 2.40934e-21)
(0.0163917 0.00113376 1.71971e-21)
(0.038709 -0.000426411 -1.36686e-21)
(0.0635134 -0.00153031 -1.94234e-21)
(0.0717147 -0.00184497 -1.52688e-21)
(0.0924354 -0.00239654 -2.63105e-22)
(0.0968449 -0.00248964 8.35572e-23)
(0.11137 -0.00263521 1.49776e-22)
(0.11382 -0.00263893 1.03342e-22)
(0.124801 -0.00255198 -5.3062e-23)
(0.126551 -0.00251332 -6.86304e-23)
(0.135795 -0.00225086 2.23272e-23)
(0.137187 -0.00218773 3.20885e-23)
(0.145224 -0.00182003 -2.43958e-24)
(0.146331 -0.00175413 -4.60993e-24)
(0.153243 -0.00135615 -8.95608e-24)
(0.154082 -0.00129825 -4.2298e-24)
(0.159753 -0.000941148 8.11702e-24)
(0.160341 -0.000897038 7.46537e-24)
(0.164495 -0.000610584 -3.36435e-25)
(0.164845 -0.000584997 -1.36781e-24)
(0.167061 -0.000443807 0)
(0.167195 -0.000434311 0)
(-0.011228 0.00103807 -4.88505e-21)
(-0.0170009 0.00181972 8.69885e-22)
(-0.0207877 0.00259629 1.3987e-22)
(-0.0193785 0.00279529 3.56654e-22)
(-0.0192523 0.00282112 3.30236e-22)
(-0.0152492 0.00261126 -1.23766e-22)
(-0.00967748 0.00210339 2.92777e-22)
(-0.00186227 0.00126631 -5.99222e-22)
(-0.00125214 0.0012358 -6.60606e-22)
(0.0119915 -9.29968e-05 1.71573e-21)
(0.0134079 -0.000196328 1.81665e-21)
(0.0363038 -0.00163512 -7.20921e-22)
(0.0633936 -0.0026842 -2.19527e-22)
(0.0666803 -0.00272675 -2.87627e-22)
(0.0900209 -0.00311536 1.89323e-22)
(0.0928157 -0.00311059 1.71297e-22)
(0.109213 -0.00311486 -3.8236e-23)
(0.111241 -0.00308238 -2.8706e-23)
(0.123153 -0.00288579 -3.63464e-24)
(0.124742 -0.0028361 2.87155e-25)
(0.134482 -0.00249012 3.57167e-24)
(0.135817 -0.00242622 1.71196e-24)
(0.144215 -0.00198709 2.62441e-24)
(0.14532 -0.00191816 2.48071e-24)
(0.152539 -0.0014675 -5.52632e-24)
(0.153404 -0.00140866 -5.55967e-24)
(0.159319 -0.00100924 5.46688e-24)
(0.159936 -0.000965036 5.29498e-24)
(0.164279 -0.000657114 2.15452e-25)
(0.16465 -0.000630551 2.31902e-25)
(0.166983 -0.000472409 -4.89264e-26)
(0.167123 -0.00046213 -5.28237e-26)
(-0.0125627 0.000994265 -4.27343e-21)
(-0.0168651 0.00147404 -1.42887e-21)
(-0.0212149 0.00211583 4.14466e-22)
(-0.0202559 0.00235173 4.42484e-22)
(-0.0195664 0.00234887 1.76802e-22)
(-0.0157134 0.00218195 -7.69418e-23)
(-0.0105519 0.00178393 4.1153e-22)
(-0.00896093 0.00164105 3.38697e-22)
(-0.00160163 0.000922535 -6.63141e-23)
(0.00996911 -0.000183604 5.16684e-22)
(0.0138434 -0.000529318 5.76786e-22)
(0.0337195 -0.00184985 2.09688e-24)
(0.0572431 -0.00273066 1.27642e-22)
(0.065053 -0.0029361 1.45907e-22)
(0.0870446 -0.00323368 1.20919e-22)
(0.0920494 -0.00327186 3.02519e-23)
(0.107966 -0.00322323 -4.97143e-23)
(0.110772 -0.00319717 -3.82784e-23)
(0.122526 -0.00297202 -7.3262e-25)
(0.12441 -0.00292007 4.03037e-24)
(0.134111 -0.00255225 6.09687e-24)
(0.135571 -0.0024815 2.91435e-24)
(0.143992 -0.00202917 1.61329e-24)
(0.145144 -0.00195221 2.41753e-24)
(0.152407 -0.00148771 -1.42983e-24)
(0.153286 -0.00142561 -2.48577e-24)
(0.159247 -0.00102003 2.77396e-24)
(0.159867 -0.000973537 3.10401e-24)
(0.164246 -0.000663398 3.12502e-25)
(0.164619 -0.000635938 3.37784e-25)
(0.166977 -0.000474664 -7.06288e-26)
(0.16712 -0.000464228 -7.63275e-26)
(-0.0153861 -0.000538307 -1.07529e-21)
(-0.0195247 -0.000693242 -1.5042e-22)
(-0.0222295 -0.000795482 2.5205e-22)
(-0.019556 -0.000855055 -2.53916e-22)
(-0.0191348 -0.000863902 -2.49159e-22)
(-0.0143266 -0.00101151 1.37975e-22)
(-0.00817049 -0.00132234 6.473e-24)
(-0.00709888 -0.00138249 4.31092e-23)
(0.00168417 -0.00191751 1.12868e-22)
(0.0145439 -0.00269646 5.71111e-23)
(0.0175389 -0.00286489 4.02056e-23)
(0.0372689 -0.00375128 1.28404e-23)
(0.0608693 -0.00426113 -7.11175e-23)
(0.0660985 -0.00431537 -5.09724e-23)
(0.0877955 -0.00426399 -5.43022e-23)
(0.0918746 -0.00420931 -3.90204e-23)
(0.107721 -0.00386481 5.74549e-24)
(0.11035 -0.00378231 6.57855e-24)
(0.122028 -0.00333816 3.25672e-24)
(0.123908 -0.00324526 1.06425e-24)
(0.133557 -0.00272625 -1.19309e-23)
(0.135047 -0.00262957 -1.07461e-23)
(0.143485 -0.00208562 3.95356e-24)
(0.144685 -0.00200193 4.76863e-24)
(0.152018 -0.0014957 -3.42387e-24)
(0.152938 -0.00142851 -4.47044e-24)
(0.15899 -0.0010102 7.90149e-25)
(0.159638 -0.000962978 1.18434e-24)
(0.164106 -0.000655322 -2.39612e-25)
(0.164495 -0.000627518 -4.21078e-25)
(0.166917 -0.00046346 1.17008e-25)
(0.167066 -0.000452678 2.6899e-26)
(-0.0155424 -0.000687003 -7.14434e-22)
(-0.0199278 -0.000996067 -1.47648e-22)
(-0.0219637 -0.00112697 1.90752e-22)
(-0.0189934 -0.00120421 -2.01569e-22)
(-0.018723 -0.00121695 -2.05325e-22)
(-0.0137321 -0.00138496 1.23507e-22)
(-0.00728146 -0.00171524 1.98282e-23)
(-0.00656301 -0.00176488 4.2337e-23)
(0.00270851 -0.00231246 8.35146e-23)
(0.0163526 -0.00307836 4.28063e-23)
(0.0186587 -0.00321749 2.47534e-23)
(0.039098 -0.00403777 9.10517e-26)
(0.0631405 -0.00446371 -9.37468e-23)
(0.0672097 -0.00451207 -7.89593e-23)
(0.0890036 -0.0043763 -4.40587e-23)
(0.0923647 -0.0043368 -3.27022e-23)
(0.108218 -0.0039315 2.17422e-23)
(0.110555 -0.00386146 2.40456e-23)
(0.122222 -0.00336712 1.66452e-24)
(0.12399 -0.00328071 -7.14105e-25)
(0.133618 -0.0027302 -1.79039e-23)
(0.135065 -0.00263665 -1.69038e-23)
(0.143489 -0.00207468 8.07015e-24)
(0.144675 -0.00199207 8.93809e-24)
(0.151998 -0.00148044 -8.13526e-24)
(0.152917 -0.00141414 -8.99853e-24)
(0.158966 -0.000995631 1.68714e-24)
(0.159615 -0.00094936 2.01745e-24)
(0.16409 -0.00064706 -9.17715e-25)
(0.164478 -0.000619902 -1.05577e-24)
(0.166908 -0.00045573 1.21951e-25)
(0.167054 -0.000444672 3.45086e-26)
(-0.0157356 -0.00191068 -2.48051e-25)
(-0.0196464 -0.00281775 -8.69234e-26)
(-0.0201776 -0.00348141 -1.55415e-23)
(-0.0164867 -0.00363079 2.33203e-23)
(-0.0147808 -0.00369362 2.33e-23)
(-0.00978093 -0.00393298 1.36749e-22)
(-0.00325003 -0.00423835 -2.45131e-24)
(-0.000679709 -0.00434192 -1.28584e-22)
(0.00797216 -0.00474409 -1.81554e-22)
(0.0215492 -0.00515621 -6.75843e-23)
(0.0258598 -0.0052696 -2.99557e-23)
(0.0449915 -0.00571558 -2.32386e-23)
(0.0642923 -0.00563377 1.90026e-23)
(0.0718985 -0.00568689 -7.71258e-23)
(0.0903424 -0.00511356 -3.00442e-23)
(0.0948368 -0.0049924 7.77138e-25)
(0.109012 -0.00431153 6.52268e-23)
(0.111464 -0.0041809 7.21125e-23)
(0.122545 -0.003501 -1.6026e-23)
(0.124246 -0.00337432 -3.63579e-23)
(0.13372 -0.00271275 -1.2855e-24)
(0.135088 -0.00259761 1.91126e-23)
(0.143511 -0.00198252 1.22298e-23)
(0.144619 -0.00188932 4.23928e-24)
(0.151982 -0.00136991 -1.62319e-23)
(0.152842 -0.00130317 -1.07684e-23)
(0.158922 -0.000899145 -1.58619e-24)
(0.15954 -0.000855867 -1.76364e-24)
(0.164044 -0.000583002 -1.33402e-24)
(0.164424 -0.000557254 -1.27172e-24)
(0.166875 -0.000404625 -9.7201e-25)
(0.167023 -0.00039408 -6.75985e-25)
(-0.0130319 -0.00228214 2.29271e-21)
(-0.0146342 -0.00322649 1.95971e-25)