/*--------------------------------*- C++ -*----------------------------------*\
  =========                 |
  \\      /  F ield         | OpenFOAM: The Open Source CFD Toolbox
   \\    /   O peration     | Website:  https://openfoam.org
    \\  /    A nd           | Version:  7
     \\/     M anipulation  |
\*---------------------------------------------------------------------------*/
FoamFile
{
    version     2.0;
    format      ascii;
    class       volVectorField;
    location    "0";
    object      U;
}
// * * * * * * * * * * * * * * * * * * * * * * * * * * * * * * * * * * * * * //

dimensions      [0 1 -1 0 0 0 0];

internalField   nonuniform List<vector> 
1056
(
(0.0173457 0.00275287 2.0297e-25)
(0.0174187 0.00276111 2.05744e-25)
(0.0175282 0.00277427 2.09657e-25)
(0.0176875 0.00279424 2.15079e-25)
(0.0232657 0.00338192 4.94437e-26)
(0.0237124 0.00342772 4.32778e-26)
(0.0329363 0.00418891 -3.85777e-22)
(0.033269 0.00419017 -3.74027e-22)
(0.0337458 0.00419576 -3.7253e-22)
(0.0395066 0.00410542 9.26198e-24)
(0.0400503 0.00406952 9.27991e-24)
(0.0452438 0.0036735 1.81417e-22)
(0.0511873 0.00319908 0)
(0.0522543 0.00311114 0)
(0.059996 0.00271312 0)
(0.062043 0.0026439 0)
(0.0723385 0.00247711 1.52405e-22)
(0.0839852 0.00252307 -4.56592e-22)
(0.0876629 0.00257457 -6.4742e-22)
(0.0996003 0.00267831 -1.18729e-21)
(0.110126 0.00266562 -1.22551e-21)
(0.11333 0.0026415 -9.22564e-22)
(0.12203 0.00239775 -3.07885e-22)
(0.130386 0.00204642 -1.7414e-22)
(0.138084 0.00170406 6.79676e-23)
(0.14069 0.00160436 1.01802e-22)
(0.147634 0.00124224 3.10902e-23)
(0.154321 0.000892207 -4.07573e-24)
(0.159765 0.000640434 2.74522e-24)
(0.163666 0.000445255 3.169e-24)
(0.164856 0.000393252 3.41667e-24)
(0.167064 0.000297369 -8.07918e-25)
(0.0176497 0.00288767 1.82624e-25)
(0.0176744 0.00289181 1.83128e-25)
(0.0177018 0.00289663 1.83623e-25)
(0.0177313 0.00290212 1.84064e-25)
(0.0258649 0.00390741 4.66561e-26)
(0.0260154 0.00392962 4.46601e-26)
(0.0351697 0.00460119 -1.23378e-21)
(0.0353196 0.00461526 -1.26128e-21)
(0.0354923 0.00463439 -1.29966e-21)
(0.0414369 0.0044735 3.05047e-23)
(0.041653 0.00448635 3.16866e-23)
(0.0471984 0.00401229 5.81689e-22)
(0.0536707 0.00346567 0)
(0.0541859 0.00346079 0)
(0.0626824 0.00301753 0)
(0.0636247 0.00302513 0)
(0.074672 0.00283251 4.45565e-22)
(0.0869766 0.00285148 -7.96927e-22)
(0.0889709 0.00291419 -9.58685e-22)
(0.101149 0.00297418 -9.37875e-22)
(0.111731 0.00288002 -9.51617e-22)
(0.113854 0.0028784 -7.26573e-22)
(0.122836 0.00259506 -3.26864e-22)
(0.131059 0.00219856 -1.73179e-22)
(0.13883 0.00177872 1.04699e-22)
(0.140907 0.00170329 1.23004e-22)
(0.147951 0.00132744 3.20488e-23)
(0.154479 0.000962387 -1.21342e-23)
(0.15995 0.000666402 4.46965e-24)
(0.16388 0.00044781 4.13072e-24)
(0.164888 0.000410452 4.7319e-24)
(0.167051 0.000321581 2.95803e-25)
(0.0202248 0.00382715 3.20466e-22)
(0.0191957 0.00364641 2.03264e-22)
(0.0201026 0.00380639 2.06004e-22)
(0.0243826 0.00456082 2.90258e-22)
(0.0322386 0.00583535 -8.30223e-22)
(0.0341626 0.00614214 -1.07806e-21)
(0.0415074 0.00689204 -2.93104e-21)
(0.0436667 0.00707641 -5.02637e-21)
(0.0446146 0.00700729 -3.13201e-21)
(0.0494124 0.00695048 -4.55904e-22)
(0.050493 0.00683649 4.73991e-23)
(0.0548714 0.00643755 2.40468e-21)
(0.0596218 0.00596176 1.22262e-21)
(0.0613835 0.0057765 2.98133e-22)
(0.0685778 0.00527573 2.4894e-22)
(0.0709218 0.00516859 5.38054e-22)
(0.0801778 0.00482595 1.79972e-21)
(0.0908464 0.00469749 -3.74836e-22)
(0.0942088 0.00467526 -6.71806e-22)
(0.105189 0.00457008 -1.59029e-22)
(0.114652 0.00420932 -1.30323e-22)
(0.117322 0.00406367 -1.70728e-22)
(0.125017 0.00358507 -2.88343e-23)
(0.133012 0.00296673 -3.50642e-22)
(0.140139 0.0023638 1.12648e-22)
(0.142233 0.00220644 1.21957e-22)
(0.148783 0.00169206 2.95381e-23)
(0.155296 0.00120886 -3.87073e-23)
(0.160387 0.000831902 3.39606e-24)
(0.164156 0.000567888 8.0382e-24)
(0.16505 0.000507968 6.98194e-24)
(0.167184 0.000386729 2.54702e-24)
(0.029916 0.00586415 4.68101e-21)
(0.0300101 0.00588363 4.69287e-21)
(0.0301196 0.00590623 4.70208e-21)
(0.0302454 0.00593207 4.70614e-21)
(0.0417349 0.00786747 2.68927e-21)
(0.0418975 0.00789587 2.62521e-21)
(0.0536052 0.00937681 -1.52959e-21)
(0.0537466 0.00939207 -1.48852e-21)
(0.053931 0.00940901 -1.44034e-21)
(0.0601576 0.00931623 -3.69391e-22)
(0.060376 0.00932191 -3.16767e-22)
(0.0654774 0.00876612 1.11831e-21)
(0.0711117 0.00803787 5.44112e-24)
(0.0715202 0.00802656 5.33381e-24)
(0.0785715 0.007304 1.95071e-22)
(0.0793487 0.00727678 2.34752e-22)
(0.0882602 0.00669234 6.6478e-22)
(0.0983478 0.00625637 -2.1584e-22)
(0.0998927 0.00622751 -3.09019e-22)
(0.109891 0.00579498 -3.44205e-22)
(0.11873 0.00522992 -2.84448e-22)
(0.120474 0.00511016 -1.83891e-22)
(0.128056 0.00436252 1.1302e-23)
(0.135172 0.00356093 -6.22735e-23)
(0.141982 0.00280776 8.09179e-23)
(0.143683 0.00263996 9.49548e-23)
(0.149984 0.00198097 1.88759e-23)
(0.155869 0.00141179 -1.75932e-23)
(0.160829 0.000970969 5.8012e-24)
(0.164464 0.000668544 7.99624e-24)
(0.165245 0.000600267 5.22252e-24)
(0.167192 0.000452687 9.81724e-25)
(0.0327059 0.00642166 5.4315e-21)
(0.0328483 0.00645026 5.35554e-21)
(0.0330029 0.00648094 5.26021e-21)
(0.0331575 0.00651108 5.14572e-21)
(0.0435707 0.00821753 2.50715e-21)
(0.0440281 0.00828996 2.28302e-21)
(0.0552571 0.00969154 -8.84287e-22)
(0.055602 0.00970443 -8.18462e-22)
(0.055962 0.00971588 -7.32583e-22)
(0.0619657 0.00959451 -2.28488e-22)
(0.0623565 0.00956596 -1.58107e-22)
(0.0673471 0.00901402 7.56168e-22)
(0.0727325 0.00832791 6.78616e-24)
(0.07358 0.00823685 7.04799e-24)
(0.0803308 0.00755368 2.1767e-22)
(0.0817766 0.00744799 3.14172e-22)
(0.0902947 0.00689449 5.21933e-22)
(0.0997811 0.00645784 -3.73129e-23)
(0.102176 0.00637032 -2.21889e-22)
(0.111455 0.00592973 -4.22791e-22)
(0.119837 0.00534392 -3.11421e-22)
(0.122058 0.00513694 -1.31749e-22)
(0.129073 0.0044136 4.56777e-23)
(0.135932 0.00361472 -5.55547e-23)
(0.142561 0.00284492 6.31691e-23)
(0.144405 0.00264254 6.54927e-23)
(0.150394 0.0020055 1.64269e-23)
(0.156155 0.00143507 -1.4968e-23)
(0.160999 0.000985556 5.83461e-24)
(0.164508 0.000677786 6.93203e-24)
(0.165303 0.000612158 3.90256e-24)
(0.167227 0.00046482 5.05933e-25)
(0.0403558 0.00729017 1.28002e-21)
(0.0405956 0.00733647 1.23227e-21)
(0.0409208 0.0073987 1.1861e-21)
(0.0413561 0.0074813 1.14627e-21)
(0.0515115 0.00906127 -5.99414e-26)
(0.0524068 0.00920768 -7.15477e-26)
(0.0662527 0.0110443 -2.55381e-22)
(0.0666688 0.0110521 -2.4417e-22)
(0.067213 0.0110517 -2.39349e-22)
(0.0726362 0.0107966 1.58174e-22)
(0.0731863 0.0107303 1.54644e-22)
(0.0776196 0.0100949 1.59701e-23)
(0.0823677 0.00934346 -4.04989e-24)
(0.0833063 0.0092105 -7.64204e-24)
(0.0890964 0.00843416 -3.50106e-23)
(0.0906028 0.00826397 -3.54294e-23)
(0.0978706 0.00755975 1.35242e-22)
(0.105902 0.00695336 9.63301e-24)
(0.108263 0.00679104 -2.35267e-23)
(0.116491 0.0061997 -9.82857e-23)
(0.123816 0.00551029 -6.01447e-23)
(0.130046 0.00477228 4.94558e-23)
(0.132178 0.00450145 5.94507e-23)
(0.138436 0.00366804 -4.3427e-23)
(0.144339 0.00289889 1.28187e-23)
(0.146053 0.00268422 1.42427e-23)
(0.151604 0.00203947 1.50855e-24)
(0.157009 0.00146426 -6.57822e-27)
(0.16147 0.00101613 2.73443e-24)
(0.16475 0.000711452 4.11039e-25)
(0.165512 0.0006405 4.70743e-25)
(0.167307 0.00048541 3.82819e-26)
(0.0395189 0.00688714 1.30438e-21)
(0.0395435 0.00688967 1.30156e-21)
(0.0395664 0.00689144 1.30017e-21)
(0.0395854 0.00689199 1.30101e-21)
(0.0552867 0.00932878 -4.62371e-26)
(0.0554561 0.00934867 -4.71208e-26)
(0.0688571 0.0109664 -2.80219e-22)
(0.0689793 0.0109641 -2.8003e-22)
(0.0691108 0.0109606 -2.8196e-22)
(0.0747862 0.0106061 1.75672e-22)
(0.0749417 0.0105888 1.77025e-22)
(0.0796622 0.00989901 1.78146e-23)
(0.0848239 0.00907511 -1.66926e-23)
(0.0851618 0.00903262 -2.01351e-23)
(0.0914909 0.00819188 -1.02546e-22)
(0.0920278 0.00813356 -1.03825e-22)
(0.0998173 0.0073752 1.91053e-22)
(0.10831 0.00673592 -1.91825e-24)
(0.109395 0.00665558 -1.16068e-23)
(0.117798 0.00602839 -3.56591e-23)
(0.125177 0.00533036 -1.92494e-24)
(0.126402 0.00518559 9.95588e-24)
(0.132946 0.00437708 6.99973e-23)
(0.139077 0.00356452 -5.67111e-23)
(0.145008 0.00280958 -2.55941e-24)
(0.146362 0.00264053 -1.15266e-24)
(0.15195 0.00199125 4.1614e-24)
(0.157169 0.00143789 5.94813e-24)
(0.161616 0.00100232 8.14651e-25)
(0.164878 0.000701455 6.62502e-25)
(0.165553 0.000638614 8.18373e-25)
(0.167289 0.00048394 2.6691e-26)
(0.0425769 0.00586765 -3.03381e-26)
(0.0433371 0.0059776 -3.16644e-26)
(0.0457492 0.00631503 4.47437e-27)
(0.0567439 0.0077927 6.89902e-23)
(0.0609113 0.00836365 6.60564e-23)
(0.063825 0.00873381 6.99272e-23)
(0.0766696 0.0100523 -1.65412e-24)
(0.0784241 0.0101894 -1.56399e-24)
(0.0797437 0.0101006 -1.89625e-24)
(0.0847105 0.00999452 -1.08669e-24)
(0.0856304 0.00981851 -1.37961e-24)
(0.0890464 0.00929234 -4.67079e-23)
(0.092605 0.00861101 -4.99786e-23)
(0.0937847 0.00840448 -8.0472e-23)
(0.0986144 0.00761979 -2.61983e-22)
(0.10021 0.0073795 -1.23638e-22)
(0.106181 0.00670923 3.2032e-22)
(0.113022 0.00607534 1.79762e-22)
(0.115132 0.00588813 1.58686e-22)
(0.12209 0.00539125 2.53025e-22)
(0.128383 0.00474664 2.31476e-22)
(0.133543 0.00412325 1.45709e-22)
(0.135471 0.00388241 1.04641e-22)
(0.141159 0.00317552 -1.0316e-22)
(0.146403 0.00251194 -5.83637e-23)
(0.147958 0.00232032 -3.5189e-23)
(0.152931 0.00179096 5.60672e-24)
(0.157981 0.00130655 2.58469e-23)
(0.162029 0.000925101 2.38226e-24)
(0.165034 0.000664868 1.5674e-25)
(0.165742 0.000601728 1.42723e-24)
(0.167399 0.000457415 1.97155e-25)
(0.0427171 0.00345175 9.6818e-22)
(0.042839 0.00346182 9.76394e-22)
(0.0429756 0.00347339 9.85704e-22)
(0.0431253 0.00348641 9.96045e-22)
(0.0619348 0.00454463 7.33687e-22)
(0.0622329 0.00455725 7.34483e-22)
(0.0818175 0.00591219 1.02313e-21)
(0.0819924 0.00589895 9.98819e-22)
(0.0822063 0.00588553 9.72038e-22)
(0.0897651 0.00551815 -8.56779e-22)
(0.0899465 0.00551107 -8.83848e-22)
(0.0946647 0.00543215 -2.35176e-22)
(0.0990947 0.00500297 -2.2801e-22)
(0.0994058 0.00496903 -1.77326e-22)
(0.104342 0.00456012 8.79701e-23)
(0.104853 0.00451315 6.2313e-23)
(0.110625 0.00413031 8.79535e-23)
(0.11696 0.0038048 1.19756e-24)
(0.117931 0.00374564 1.12759e-24)
(0.124399 0.00346915 7.81112e-23)
(0.130424 0.00316787 7.11056e-23)
(0.135921 0.00280254 2.97256e-23)
(0.137102 0.00272342 2.97016e-23)
(0.142357 0.00231001 -2.84613e-23)
(0.147491 0.00188659 -6.92654e-24)
(0.148767 0.00177596 -5.50689e-24)
(0.153635 0.00140103 -2.99017e-24)
(0.158302 0.00105495 7.44841e-24)
(0.162309 0.000766642 -1.20008e-24)
(0.165249 0.000557401 1.90422e-24)
(0.165872 0.000515595 2.26788e-24)
(0.167413 0.0003975 4.17685e-25)
(0.0431085 0.00313917 1.06077e-21)
(0.0433079 0.00316153 1.07362e-21)
(0.0435289 0.00318646 1.08816e-21)
(0.0611901 0.00391871 7.95485e-22)
(0.061674 0.00394876 7.95875e-22)
(0.0622368 0.00397968 7.92249e-22)
(0.0822092 0.00528342 1.19332e-21)
(0.0825324 0.00527453 1.14774e-21)
(0.0828978 0.00526468 1.10421e-21)
(0.0903805 0.00493403 -1.08908e-21)
(0.0906704 0.00493411 -1.14146e-21)
(0.0953453 0.00489967 -2.39736e-22)
(0.0996564 0.00451695 -2.07619e-22)
(0.100131 0.00448021 -1.2377e-22)
(0.104897 0.00412288 1.44748e-22)
(0.105636 0.00407017 1.0368e-22)
(0.111205 0.00373467 3.9163e-23)
(0.117284 0.00345383 1.73724e-24)
(0.118566 0.00339053 1.5993e-24)
(0.124802 0.00315351 6.292e-23)
(0.13069 0.00290075 5.74572e-23)
(0.136019 0.00260417 1.43722e-23)
(0.137415 0.00250514 1.41137e-23)
(0.142601 0.00213888 -1.37703e-23)
(0.147658 0.0017601 4.26022e-24)
(0.149013 0.00165569 4.69115e-24)
(0.153777 0.00130988 -8.67472e-24)
(0.158415 0.000992194 3.8328e-24)
(0.162372 0.000725956 -8.4826e-25)
(0.165257 0.000541121 1.72435e-24)
(0.165899 0.000494042 2.05891e-24)
(0.167436 0.000376074 3.86907e-25)
(0.0341496 -0.00114882 -1.25114e-21)
(0.0347711 -0.00115721 -1.22152e-21)
(0.0355684 -0.00116434 -1.20244e-21)
(0.0524635 -0.000661271 1.19594e-21)
(0.0543351 -0.000632089 1.29392e-21)
(0.0564637 -0.000582299 1.43109e-21)
(0.079055 -0.000377693 -5.60097e-22)
(0.0804402 -0.000315864 -7.85317e-22)
(0.0917597 0.00019874 1.38975e-23)
(0.0922755 0.000220094 -3.20362e-22)
(0.096313 0.000380042 -1.70984e-21)
(0.0968648 0.000439827 -1.11846e-21)
(0.100448 0.000665497 4.51421e-22)
(0.101177 0.00066736 3.75256e-22)
(0.105303 0.000685625 3.04898e-22)
(0.106496 0.000697979 2.4552e-22)
(0.111629 0.000730715 -9.29526e-23)
(0.117522 0.000847176 -3.77672e-23)
(0.119261 0.000916406 -2.48193e-24)
(0.125319 0.00107324 2.69694e-22)
(0.131124 0.00120358 1.88239e-22)
(0.136179 0.00123404 8.86262e-23)
(0.137823 0.00123641 3.41187e-23)
(0.143036 0.00115077 3.9523e-24)
(0.147993 0.00102057 5.49558e-23)
(0.1494 0.000983286 4.12234e-23)
(0.15404 0.000826383 -5.59831e-23)
(0.158676 0.000653506 -2.97296e-24)
(0.16252 0.000504248 7.4963e-24)
(0.16533 0.000389674 -4.28052e-24)
(0.165971 0.000364576 -3.66817e-24)
(0.167493 0.00027864 0)
(0.0266716 -0.00090515 -6.2453e-21)
(0.0268082 -0.000907969 -6.18965e-21)
(0.026967 -0.000910896 -6.12579e-21)
(0.0271501 -0.000913798 -6.05321e-21)
(0.0476545 -0.00058981 1.16029e-21)
(0.0479748 -0.000583903 1.17598e-21)
(0.0483525 -0.00057475 1.19518e-21)
(0.0733906 -0.000784677 -3.01813e-21)
(0.073729 -0.000762248 -2.99752e-21)
(0.0895054 -0.000508198 2.31143e-21)
(0.0896751 -0.000472147 2.21107e-21)
(0.0956117 -0.000260712 -1.22271e-21)
(0.095765 -0.000213474 -1.14638e-21)
(0.100363 0.000218027 -2.40657e-22)
(0.105088 0.000335495 6.4105e-22)
(0.105399 0.000364434 6.0102e-22)
(0.110862 0.000397755 -3.9002e-22)
(0.11714 0.000492706 -2.71257e-22)
(0.11785 0.000551909 -2.34969e-22)
(0.124505 0.000708757 4.1518e-22)
(0.130813 0.000877653 1.36676e-22)
(0.131742 0.000944878 1.19192e-22)
(0.137423 0.000988628 4.41335e-23)
(0.142772 0.000944927 1.0834e-23)
(0.147947 0.000860299 9.36604e-23)
(0.149036 0.000865372 7.65408e-23)
(0.153927 0.00071696 -9.91574e-23)
(0.158537 0.000569706 -1.00139e-24)
(0.162492 0.000448627 1.88131e-23)
(0.16538 0.000364215 -6.86766e-24)
(0.165959 0.000335619 -7.00005e-24)
(0.167463 0.00024714 0)
(0.00612663 -0.00096281 -1.39874e-20)
(0.006274 -0.000983414 -1.37957e-20)
(0.00666925 -0.00102002 -1.32556e-20)
(0.0156213 -0.00148729 -1.12132e-20)
(0.017389 -0.00161897 -1.0038e-20)
(0.0197357 -0.00178167 -9.1521e-21)
(0.0390147 -0.00276862 -2.20128e-21)
(0.0433055 -0.00301896 -2.56273e-21)
(0.0633579 -0.00379348 -1.5494e-21)
(0.0688773 -0.00396568 1.62288e-21)
(0.0841431 -0.00394145 5.17454e-21)
(0.0870521 -0.00374374 2.69769e-21)
(0.0945088 -0.00298154 -1.1129e-21)
(0.0963257 -0.0026131 -1.47161e-21)
(0.101487 -0.00192114 -2.70229e-22)
(0.102779 -0.00179475 -1.0397e-23)
(0.10768 -0.00150852 -1.00328e-21)
(0.113115 -0.00131226 -8.29313e-22)
(0.115034 -0.00123945 -4.71303e-22)
(0.121723 -0.000993837 6.27525e-22)
(0.128432 -0.000606013 2.93727e-22)
(0.134103 -0.000297622 -5.99895e-23)
(0.136284 -0.000164935 -4.59811e-23)
(0.142129 5.92633e-05 5.85445e-23)
(0.147258 0.000165181 1.43862e-22)
(0.148765 0.000203229 6.23303e-23)
(0.15363 0.00023819 -1.74595e-22)
(0.158503 0.000241702 9.71497e-24)
(0.162402 0.000210109 1.71683e-23)
(0.165279 0.000187981 1.1187e-23)
(0.165949 0.000182474 -2.49935e-24)
(0.167518 0.000137814 -1.74275e-24)
(-0.00674012 0.00221509 -1.222e-20)
(-0.00673242 0.00221371 -1.21548e-20)
(-0.00671784 0.00220979 -1.20806e-20)
(-0.00669341 0.00220208 -1.19995e-20)
(-0.00433992 0.00263383 -7.09637e-21)
(-0.00421986 0.00262282 -6.8993e-21)
(0.0052939 0.00235719 -1.52311e-21)
(0.00580777 0.00229599 -1.5809e-21)
(0.00638691 0.00222378 -1.66586e-21)
(0.0268796 0.000419001 3.67841e-21)
(0.028225 0.000278642 3.90335e-21)
(0.0517047 -0.00164309 7.32945e-22)
(0.0728542 -0.00273373 7.54176e-23)
(0.0746962 -0.00276234 -1.45699e-22)
(0.0900885 -0.0027916 -1.36217e-21)
(0.0914651 -0.00268014 -1.32237e-21)
(0.101376 -0.00222499 -5.59853e-22)
(0.108831 -0.00185642 -4.43726e-22)
(0.110113 -0.00182468 -3.7961e-22)
(0.117228 -0.00163565 7.83395e-22)
(0.124472 -0.0014162 7.21536e-24)
(0.131578 -0.00112207 -2.28358e-22)
(0.133401 -0.00100541 -1.76364e-22)
(0.139929 -0.00070941 1.73341e-22)
(0.145954 -0.000474649 1.95071e-22)
(0.147525 -0.000393854 9.89382e-23)
(0.152825 -0.000231694 -1.10651e-22)
(0.15785 -0.000119354 1.68743e-23)
(0.162126 -4.57523e-05 -7.33897e-25)
(0.1652 -1.10062e-06 -2.45399e-23)
(0.165851 1.84109e-05 -1.33395e-23)
(0.167472 1.59468e-05 3.26299e-25)
(-0.00695752 0.00230677 -9.60548e-21)
(-0.00699433 0.00232084 -9.72778e-21)
(-0.00703602 0.00233717 -9.84339e-21)
(-0.00708269 0.00235601 -9.94015e-21)
(-0.00610587 0.00290191 -8.59097e-21)
(-0.00610628 0.00291803 -8.42509e-21)
(0.000485764 0.00301683 -8.05009e-22)
(0.000727403 0.00299192 -7.83952e-22)
(0.0011399 0.00294942 -7.72099e-22)
(0.018276 0.00136107 2.45854e-21)
(0.0195973 0.0012141 2.61364e-21)
(0.042409 -0.00086709 1.1306e-21)
(0.0655423 -0.00244014 9.45125e-22)
(0.067674 -0.0025542 5.31793e-22)
(0.0855575 -0.00292828 -1.48166e-21)
(0.0874823 -0.00285142 -1.35904e-21)
(0.0988135 -0.00239733 -6.55758e-22)
(0.106921 -0.00194487 -9.92768e-22)
(0.108345 -0.00189933 -4.45403e-22)
(0.11549 -0.00172288 9.17239e-22)
(0.122766 -0.00155012 1.17998e-22)
(0.130041 -0.00128411 -2.73994e-22)
(0.132186 -0.00116646 -3.06368e-22)
(0.139059 -0.000853699 1.7676e-22)
(0.145209 -0.000600627 1.57042e-22)
(0.146881 -0.000509121 8.65676e-23)
(0.152427 -0.000332163 -9.18402e-23)
(0.157624 -0.000194763 1.61215e-23)
(0.161961 -0.000101095 -2.8478e-24)
(0.165108 -2.79566e-05 -2.4407e-23)
(0.165811 -1.46908e-05 -1.07876e-23)
(0.167473 -1.67415e-05 3.16407e-25)
(-0.00712503 0.00261995 9.40836e-21)
(-0.00730406 0.00269245 8.83345e-21)
(-0.00752852 0.00278282 8.04225e-21)
(-0.00775575 0.00287356 7.15272e-21)
(-0.00992557 0.00382912 6.76099e-21)
(-0.0102886 0.00398515 6.05495e-21)
(-0.011439 0.00485534 -1.86303e-21)
(-0.0113216 0.00489312 -1.87429e-21)
(-0.0110382 0.00489959 -1.93615e-21)
(-0.00581785 0.00443171 -1.32982e-24)
(-0.00366036 0.00414721 -1.97953e-24)
(0.00897355 0.00267191 1.63465e-21)
(0.0277572 0.000790654 -2.75064e-22)
(0.0336975 0.000259749 7.90647e-23)
(0.0566844 -0.00134321 1.82401e-21)
(0.0637117 -0.00164941 1.37072e-21)
(0.0832459 -0.00228991 -1.40383e-22)
(0.0977665 -0.00226874 -1.72895e-21)
(0.100846 -0.00218462 -1.00644e-21)
(0.110199 -0.00203881 5.90562e-22)
(0.118519 -0.00194443 9.44485e-22)
(0.126047 -0.00178114 3.86908e-23)
(0.128686 -0.00170295 -3.43659e-22)
(0.13654 -0.00141742 1.45072e-22)
(0.143433 -0.00110794 -3.33275e-23)
(0.145362 -0.00100122 -8.8321e-24)
(0.151253 -0.000752443 -6.8999e-23)
(0.156958 -0.000525109 8.54391e-24)
(0.161578 -0.000341904 -1.47958e-23)
(0.164894 -0.000212337 -3.74155e-25)
(0.165654 -0.000176607 4.27662e-25)
(0.167465 -0.00013753 0)
(-0.00578531 0.00219095 1.58417e-20)
(-0.00578078 0.0021885 1.59074e-20)
(-0.00577446 0.00218519 1.59797e-20)
(-0.00576583 0.0021808 1.60579e-20)
(-0.0096184 0.00372809 -7.2041e-21)
(-0.00965557 0.00374189 -7.29175e-21)
(-0.0126108 0.00504498 -2.80754e-21)
(-0.0126382 0.00505626 -2.77999e-21)
(-0.012668 0.00506818 -2.69854e-21)
(-0.011671 0.00517414 -4.15646e-21)
(-0.0116099 0.00516766 -3.58032e-21)
(-0.00503384 0.00424599 2.81174e-21)
(0.00838003 0.00265345 3.06264e-21)
(0.00952423 0.00252681 2.60806e-21)
(0.0313906 0.000644761 -1.37609e-21)
(0.0337499 0.000450136 -8.11796e-22)
(0.0596472 -0.00101216 3.11439e-22)
(0.0823735 -0.00176094 -2.37803e-22)
(0.0853553 -0.00183499 -4.12734e-22)
(0.101868 -0.00206809 6.82373e-22)
(0.113418 -0.00211896 8.91971e-22)
(0.11525 -0.00210819 7.91286e-22)
(0.124903 -0.00199657 -1.10296e-22)
(0.133553 -0.0017733 4.98562e-23)
(0.141363 -0.00149251 -5.25027e-23)
(0.143103 -0.00140086 -6.56607e-23)
(0.149936 -0.00108113 -9.91845e-25)
(0.15602 -0.000789074 0)
(0.161077 -0.000553485 9.33579e-25)
(0.164719 -0.000373856 -2.08866e-24)
(0.165443 -0.000323342 -1.92929e-24)
(0.167377 -0.000237644 0)
(-0.00574398 0.00220628 1.15901e-20)
(-0.00576321 0.00221529 1.16237e-20)
(-0.00581761 0.00223863 1.18364e-20)
(-0.00594925 0.0022933 1.2451e-20)
(-0.00815646 0.00317849 -9.92552e-22)
(-0.00861466 0.00336678 -1.3095e-21)
(-0.011781 0.00470329 -1.48482e-21)
(-0.0120703 0.00482693 -7.11026e-21)
(-0.0123788 0.0049632 -1.14059e-20)
(-0.0125091 0.00526752 -1.28566e-20)
(-0.0122554 0.0052361 -5.03803e-21)
(-0.00870189 0.00471705 9.65781e-21)
(-0.000940592 0.00370348 9.61036e-21)
(0.00203714 0.00332308 5.41377e-22)
(0.0183284 0.00172635 -4.65859e-21)
(0.0248022 0.00114082 -1.76638e-21)
(0.0498812 -0.000540433 1.41248e-21)
(0.0734748 -0.00153447 5.3652e-22)
(0.0812153 -0.0017697 -2.49582e-22)
(0.0992349 -0.00209978 7.62035e-22)
(0.110813 -0.00215161 9.60307e-22)
(0.113954 -0.00214275 7.54045e-22)
(0.123235 -0.00208479 8.61343e-23)
(0.132372 -0.00188795 -2.14233e-23)
(0.140213 -0.00160425 -8.1097e-25)
(0.142473 -0.00149396 -1.17762e-23)
(0.149328 -0.00118656 -3.52455e-25)
(0.15578 -0.000867612 0)
(0.160857 -0.000606596 2.49389e-24)
(0.164533 -0.000403424 -2.7599e-24)
(0.16539 -0.000353393 -2.70854e-24)
(0.167408 -0.000269994 0)
(-0.00675479 0.00233029 -8.93861e-21)
(-0.00677838 0.00233883 -9.00794e-21)
(-0.00680051 0.00234678 -9.07534e-21)
(-0.00681774 0.00235289 -9.13174e-21)
(-0.0103925 0.00371603 8.27626e-21)
(-0.0104909 0.00375533 8.83705e-21)
(-0.0137801 0.00515894 -4.16201e-21)
(-0.013824 0.00518685 -4.48012e-21)
(-0.0138662 0.00521178 -5.06774e-21)
(-0.0138038 0.00553575 2.41251e-21)
(-0.0137286 0.00552296 1.58493e-21)
(-0.0111156 0.00506702 -1.8963e-21)
(-0.00575399 0.0041678 -4.03666e-21)
(-0.00497486 0.00404078 -3.72425e-21)
(0.00662861 0.00261667 -6.31633e-23)
(0.00908114 0.00235345 -6.4987e-23)
(0.0304809 0.0006365 1.73956e-21)
(0.0567019 -0.000835113 3.95705e-22)
(0.0632242 -0.00111398 1.97946e-22)
(0.0867619 -0.00192275 5.38565e-22)
(0.104078 -0.00226756 2.70608e-22)
(0.107796 -0.00229229 3.60383e-22)
(0.119304 -0.0023219 1.12861e-23)
(0.12923 -0.00219288 -1.46641e-22)
(0.138136 -0.00192453 -2.43452e-23)
(0.140442 -0.0018184 -4.03844e-24)
(0.14789 -0.00147554 2.40269e-23)
(0.154698 -0.00111329 -6.18004e-25)
(0.160314 -0.000785549 7.73681e-24)
(0.16429 -0.000537416 3.589e-25)
(0.165158 -0.000475623 -2.88348e-24)
(0.167317 -0.000357362 -1.07514e-24)
(-0.00652479 0.00219096 -8.76661e-21)
(-0.00654966 0.002202 -8.81368e-21)
(-0.00658046 0.00221536 -8.87553e-21)
(-0.0066187 0.00223152 -8.95728e-21)
(-0.0102143 0.00349862 5.85093e-21)
(-0.0102641 0.0035269 5.96577e-21)
(-0.0140086 0.00506256 -2.93897e-21)
(-0.0140053 0.00507981 -2.59576e-21)
(-0.0140215 0.00510698 -2.25853e-21)
(-0.0142748 0.00555752 5.22258e-21)
(-0.0141895 0.00555308 4.16648e-21)
(-0.0118666 0.00518401 -4.10258e-21)
(-0.00697114 0.00433819 -3.98089e-21)
(-0.00653817 0.00426591 -3.59154e-21)
(0.00348124 0.002946 -3.3532e-22)
(0.0051429 0.00275323 -2.82266e-22)
(0.0240166 0.00105837 1.91469e-21)
(0.0499912 -0.000554058 3.89917e-23)
(0.0560235 -0.000836482 2.05747e-22)
(0.0821252 -0.00183223 4.47888e-22)
(0.101256 -0.00227155 2.43801e-22)
(0.105066 -0.00230675 2.7891e-22)
(0.1177 -0.0023714 4.90154e-23)
(0.128104 -0.00225807 -1.14369e-22)
(0.13718 -0.00199916 -6.69739e-23)
(0.139524 -0.00189746 6.35489e-25)
(0.147348 -0.00154576 2.51771e-23)
(0.154375 -0.00116506 -2.74041e-24)
(0.160095 -0.000824082 8.76123e-24)
(0.164189 -0.000556915 8.38702e-25)
(0.165095 -0.000497976 -3.00937e-24)
(0.167299 -0.000376822 -1.09613e-24)
(0 0 0)
(-0.00858795 0.00206403 -1.87588e-21)
(-0.00896675 0.00215628 -1.14924e-21)
(-0.00960742 0.00231006 9.94657e-23)
(-0.0128269 0.0032158 6.8808e-22)
(-0.0136301 0.00344978 1.19655e-21)
(-0.0144456 0.00371773 8.68194e-22)
(-0.0175393 0.00481282 3.94131e-21)
(-0.0176303 0.00493068 3.50561e-21)
(-0.0173227 0.00529003 -5.32151e-22)
(-0.0167902 0.00525343 -5.95314e-22)
(-0.0142534 0.00501636 -3.76981e-22)
(-0.013136 0.0048397 -4.50655e-22)
(-0.00914134 0.00425081 -6.46763e-22)
(-0.00268027 0.0032592 -6.54368e-22)
(-0.00019175 0.00288516 4.53858e-22)
(0.0123701 0.00143818 3.34472e-21)
(0.035545 -0.00021408 2.17329e-22)
(0.0438853 -0.000670397 -8.85471e-22)
(0.0714655 -0.0018369 -1.56183e-21)
(0.0940137 -0.00243345 -9.07058e-23)
(0.0993766 -0.002519 -4.91984e-23)
(0.113589 -0.00264086 9.82003e-23)
(0.125533 -0.00254962 -3.56921e-23)
(0.135228 -0.00226629 2.64501e-23)
(0.13785 -0.00215565 3.47651e-23)
(0.145985 -0.00177619 -3.51291e-24)
(0.153608 -0.00134111 -1.45963e-23)
(0.159604 -0.00094983 6.80226e-24)
(0.16388 -0.000654649 1.72649e-24)
(0.164874 -0.000583119 -1.38616e-24)
(0.167271 -0.000432724 0)
(-0.0112193 0.00103456 -4.88774e-21)
(-0.0112249 0.00103681 -4.88615e-21)
(-0.0112306 0.00103919 -4.88389e-21)
(-0.0169366 0.00180225 7.76199e-22)
(-0.0169786 0.00181378 8.37109e-22)
(-0.0170276 0.00182662 9.09259e-22)
(-0.0207927 0.00258449 1.46746e-22)
(-0.0207849 0.00260238 1.35873e-22)
(-0.0207758 0.002621 1.21403e-22)
(-0.0193358 0.00280499 3.46516e-22)
(-0.0192496 0.00282157 3.29795e-22)
(-0.0153024 0.00260742 -1.34011e-22)
(-0.00982174 0.00210072 3.00504e-22)
(-0.00952709 0.00210291 2.84483e-22)
(-0.00166143 0.0012587 -6.21695e-22)
(-0.00101835 0.00121815 -6.7812e-22)
(0.012539 -0.000130008 1.76398e-21)
(0.0350918 -0.00158785 -6.94626e-22)
(0.0382228 -0.00171452 -7.38453e-22)
(0.0664423 -0.00272319 -2.83193e-22)
(0.0906384 -0.00311359 1.84713e-22)
(0.108118 -0.00313458 -4.32399e-23)
(0.111069 -0.00308414 -2.94918e-23)
(0.123701 -0.00286754 -1.86596e-24)
(0.134113 -0.00250813 3.74269e-24)
(0.136244 -0.00240821 9.80344e-25)
(0.145055 -0.00193404 2.21489e-24)
(0.152847 -0.00144558 -5.64304e-24)
(0.159199 -0.0010176 5.38923e-24)
(0.163732 -0.000698954 2.41254e-25)
(0.164676 -0.000629036 2.38606e-25)
(0.167162 -0.000459837 -4.25549e-26)
(0 0 0)
(-0.0124766 0.000985397 -4.31615e-21)
(-0.0126591 0.00100374 -4.22185e-21)
(-0.0129405 0.00103001 -4.05941e-21)
(-0.0166119 0.00144566 -1.59263e-21)
(-0.0171692 0.00150901 -1.22757e-21)
(-0.0177647 0.00158167 -8.16344e-22)
(-0.0212421 0.00213193 4.14716e-22)
(-0.0212618 0.00217784 3.22359e-22)
(-0.0200492 0.00235415 3.01289e-22)
(-0.0195486 0.00234846 1.76728e-22)
(-0.0159763 0.0021967 -1.42639e-22)
(-0.0150202 0.00213614 2.25833e-23)
(-0.00993584 0.00173326 3.91837e-22)
(-0.00295239 0.00105621 -1.28886e-23)
(-0.000723713 0.000828716 -9.03294e-23)
(0.0113476 -0.000313558 5.05395e-22)
(0.0308533 -0.00164837 -6.40925e-23)
(0.0378914 -0.00203089 -1.29901e-23)
(0.0647057 -0.00292879 1.5077e-22)
(0.0886204 -0.00324874 8.6475e-23)
(0.0944835 -0.00326923 5.13857e-23)
(0.110555 -0.00320005 -3.99593e-23)
(0.123326 -0.00295686 4.42587e-24)
(0.133534 -0.00257272 5.10311e-24)
(0.136215 -0.00244623 1.02806e-24)
(0.144811 -0.00197822 1.39399e-24)
(0.15278 -0.00146605 5.22656e-25)
(0.159095 -0.00102922 3.06266e-24)
(0.16361 -0.000709579 3.16826e-25)
(0.16465 -0.000633705 3.42232e-25)
(0.167193 -0.000462102 -5.54493e-26)
(-0.0152701 -0.000532267 -1.10149e-21)
(-0.0153423 -0.000536094 -1.08392e-21)
(-0.0154285 -0.00054041 -1.06797e-21)
(-0.0155291 -0.000545169 -1.05536e-21)
(-0.0194514 -0.000689052 -1.47301e-22)
(-0.0196143 -0.00069812 -1.54393e-22)
(-0.022264 -0.000791663 2.49353e-22)
(-0.0222078 -0.000797093 2.55021e-22)
(-0.0221225 -0.000800131 2.72281e-22)
(-0.0194264 -0.000858735 -2.47537e-22)
(-0.019125 -0.000863969 -2.49591e-22)
(-0.0144886 -0.00100416 1.4533e-22)
(-0.00854282 -0.0013002 -1.4687e-23)
(-0.00774239 -0.00134675 2.54708e-23)
(0.000640877 -0.00185322 1.16116e-22)
(0.00233623 -0.00195753 1.15263e-22)
(0.015659 -0.00276067 5.70196e-23)
(0.0352298 -0.00367014 4.14664e-23)
(0.040519 -0.00384921 -6.53535e-24)
(0.065762 -0.00431375 -5.25007e-23)
(0.0888373 -0.00425222 -4.96449e-23)
(0.0939699 -0.00416401 -3.67054e-23)
(0.110134 -0.00379092 6.33969e-24)
(0.122724 -0.00331009 3.40853e-24)
(0.133068 -0.00275391 -1.03348e-23)
(0.135621 -0.00259055 -8.8569e-24)
(0.144364 -0.00202488 5.26151e-24)
(0.152355 -0.00147432 -3.66711e-24)
(0.15885 -0.00101958 7.86688e-25)
(0.163482 -0.000697123 -5.28735e-25)
(0.164526 -0.000625093 -4.86382e-25)
(0.167122 -0.000450919 -3.97513e-26)
(-0.0154825 -0.000684158 -7.21157e-22)
(-0.0155204 -0.000685953 -7.16494e-22)
(-0.0155623 -0.000688015 -7.13044e-22)
(-0.0156065 -0.00069035 -7.11773e-22)
(-0.0198856 -0.000992698 -1.45821e-22)
(-0.0199779 -0.0010001 -1.49836e-22)
(-0.0219908 -0.00112361 1.86518e-22)
(-0.0219483 -0.00112872 1.93598e-22)
(-0.0218939 -0.00113439 2.0554e-22)
(-0.0189046 -0.00120854 -2.00921e-22)
(-0.0187172 -0.00121721 -2.05585e-22)
(-0.0138389 -0.00137807 1.26384e-22)
(-0.00755877 -0.00169447 7.92355e-24)
(-0.00698056 -0.00173673 3.0623e-23)
(0.00192918 -0.00225663 8.43805e-23)
(0.00316468 -0.00234345 8.47693e-23)
(0.0172345 -0.00313382 3.86563e-23)
(0.0374825 -0.00397275 1.70327e-23)
(0.0417256 -0.00412067 -1.41708e-23)
(0.0669182 -0.00451032 -8.02222e-23)
(0.0897776 -0.0043699 -4.08121e-23)
(0.0941795 -0.00429704 -2.9957e-23)
(0.110349 -0.00386908 2.38813e-23)
(0.122825 -0.00334161 1.47542e-24)
(0.133209 -0.00275382 -1.65542e-23)
(0.135599 -0.00260029 -1.48223e-23)
(0.144361 -0.00201363 9.48729e-24)
(0.15231 -0.00145897 -8.66309e-24)
(0.15884 -0.00100486 1.63058e-24)
(0.163511 -0.000689425 -9.13089e-25)
(0.164509 -0.000618052 -1.06647e-24)
(0.167097 -0.000442249 -1.40122e-26)
(-0.0157983 -0.00192432 -2.50031e-25)
(-0.0157146 -0.00190665 -2.49963e-25)
(-0.015862 -0.00193631 -2.43212e-25)
(-0.0167223 -0.00211173 -2.14839e-25)
(-0.0190242 -0.00268123 -1.0821e-25)
(-0.0200733 -0.00292389 -7.07805e-26)
(-0.0206533 -0.00344503 -1.63094e-23)
(-0.019991 -0.0034983 -1.4634e-23)
(-0.0192663 -0.00352059 -1.64297e-23)
(-0.0157889 -0.00365978 2.06351e-23)
(-0.0147332 -0.00369516 2.35343e-23)
(-0.0101067 -0.00391415 1.35311e-22)
(-0.00474952 -0.00415192 -7.43901e-23)
(-0.00250217 -0.00429217 5.49594e-23)
(0.00631912 -0.00464129 -6.79963e-23)
(0.00941685 -0.00476229 -1.2427e-22)
(0.0230599 -0.00524718 -2.90989e-23)
(0.0417778 -0.00558182 -3.375e-23)
(0.0483641 -0.00566318 -5.0041e-23)
(0.0717856 -0.00569978 -8.49546e-23)
(0.0919969 -0.00507321 -1.89398e-23)
(0.0970347 -0.00484218 1.91691e-23)
(0.111276 -0.00420205 7.8895e-23)
(0.123425 -0.00347063 -1.13856e-23)
(0.133113 -0.00275029 1.10224e-23)
(0.135759 -0.00254187 3.08747e-23)
(0.144277 -0.00192017 1.07756e-23)
(0.15243 -0.00134427 -3.23555e-23)
(0.158761 -0.000909472 -3.22507e-24)