/*--------------------------------*- C++ -*----------------------------------*\
  =========                 |
  \\      /  F ield         | OpenFOAM: The Open Source CFD Toolbox
   \\    /   O peration     | Website:  https://openfoam.org
    \\  /    A nd           | Version:  7
     \\/     M anipulation  |
\*---------------------------------------------------------------------------*/
FoamFile
{
    version     2.0;
    format      ascii;
    class       volScalarField;
    location    "0";
    object      nut;
}
// * * * * * * * * * * * * * * * * * * * * * * * * * * * * * * * * * * * * * //

dimensions      [0 2 -1 0 0 0 0];

internalField   nonuniform List<scalar> 
1056
(
2.27958e-07
2.31026e-07
2.35356e-07
2.41354e-07
1.5346e-06
1.62148e-06
5.26327e-06
5.55415e-06
5.97859e-06
1.20464e-05
1.28213e-05
1.92493e-05
2.38422e-05
2.43919e-05
2.59843e-05
2.59378e-05
2.56608e-05
2.60831e-05
2.64729e-05
2.97716e-05
3.61671e-05
3.88922e-05
4.73273e-05
5.64892e-05
6.56646e-05
6.90505e-05
7.94928e-05
9.42059e-05
0.000114996
0.000128138
0.000131997
0.000137589
2.05476e-07
2.06034e-07
2.06582e-07
2.0707e-07
1.61518e-06
1.63542e-06
5.87548e-06
5.9671e-06
6.06309e-06
1.28532e-05
1.30532e-05
2.00104e-05
2.45898e-05
2.47619e-05
2.60978e-05
2.60802e-05
2.5836e-05
2.65479e-05
2.68402e-05
3.06083e-05
3.74381e-05
3.92773e-05
4.8209e-05
5.73959e-05
6.67645e-05
6.94961e-05
8.04271e-05
9.54298e-05
0.000116292
0.000128862
0.000132103
0.000137547
1.18581e-07
9.00954e-08
1.15573e-07
2.35572e-07
9.73182e-07
1.18122e-06
4.19341e-06
5.12664e-06
6.74073e-06
1.23888e-05
1.39406e-05
2.01807e-05
2.40614e-05
2.58296e-05
2.70062e-05
2.70524e-05
2.68644e-05
2.78604e-05
2.84855e-05
3.17393e-05
3.93938e-05
4.22257e-05
5.06593e-05
6.01975e-05
6.95784e-05
7.26778e-05
8.32781e-05
9.80334e-05
0.000119408
0.000130915
0.000132972
0.000137789
1.88474e-07
1.90279e-07
1.92395e-07
1.94845e-07
1.44053e-06
1.46703e-06
5.47754e-06
5.56046e-06
5.67339e-06
1.24184e-05
1.26369e-05
1.98922e-05
2.55379e-05
2.5742e-05
2.84534e-05
2.85808e-05
2.95537e-05
3.10499e-05
3.14947e-05
3.60393e-05
4.37871e-05
4.58287e-05
5.54831e-05
6.51714e-05
7.49432e-05
7.78236e-05
8.92071e-05
0.000104053
0.000121776
0.000131451
0.000133242
0.000137712
2.2789e-07
2.31285e-07
2.3495e-07
2.38572e-07
1.66392e-06
1.73392e-06
5.77802e-06
6.04259e-06
6.31955e-06
1.2945e-05
1.34772e-05
2.04077e-05
2.56452e-05
2.6163e-05
2.87809e-05
2.89682e-05
3.00042e-05
3.16325e-05
3.24143e-05
3.71472e-05
4.50399e-05
4.77933e-05
5.71088e-05
6.66885e-05
7.64876e-05
7.96722e-05
9.09342e-05
0.00010569
0.00012222
0.000131516
0.000133329
0.000137767
1.98064e-07
2.01918e-07
2.07236e-07
2.1446e-07
1.36371e-06
1.45675e-06
4.94207e-06
5.25645e-06
5.71573e-06
1.18567e-05
1.2723e-05
1.96452e-05
2.55723e-05
2.64739e-05
3.03401e-05
3.0997e-05
3.32073e-05
3.56451e-05
3.65635e-05
4.19192e-05
5.04557e-05
5.99383e-05
6.36816e-05
7.40075e-05
8.36873e-05
8.68173e-05
9.78332e-05
0.000111341
0.000123791
0.000131759
0.000133561
0.00013783
1.74029e-07
1.74347e-07
1.74628e-07
1.74836e-07
1.41756e-06
1.42995e-06
5.48832e-06
5.54928e-06
5.61193e-06
1.25658e-05
1.271e-05
2.03764e-05
2.66828e-05
2.69118e-05
3.0991e-05
3.11812e-05
3.38401e-05
3.70094e-05
3.75221e-05
4.35998e-05
5.23367e-05
5.4247e-05
6.44872e-05
7.4747e-05
8.50702e-05
8.75539e-05
9.8851e-05
0.000111623
0.000124031
0.00013202
0.000133604
0.000137754
1.43223e-07
1.53342e-07
1.86153e-07
9.19799e-07
1.0755e-06
1.39346e-06
4.117e-06
4.90153e-06
6.35675e-06
1.15859e-05
1.35043e-05
1.97923e-05
2.53995e-05
2.71148e-05
3.16467e-05
3.27025e-05
3.63941e-05
4.05149e-05
4.20379e-05
4.79643e-05
5.58031e-05
6.3762e-05
6.68346e-05
7.69887e-05
8.72795e-05
9.04632e-05
0.000101103
0.000113361
0.000124481
0.000132082
0.000133807
0.000137905
1.06089e-07
1.0697e-07
1.07968e-07
1.09078e-07
9.96073e-07
1.01577e-06
4.00857e-06
4.08747e-06
4.18359e-06
1.00025e-05
1.02221e-05
1.76208e-05
2.46586e-05
2.5053e-05
3.09516e-05
3.14493e-05
3.65527e-05
4.174e-05
4.26231e-05
4.91512e-05
5.68628e-05
6.54851e-05
6.755e-05
7.74589e-05
8.80392e-05
9.07673e-05
0.000101655
0.000113354
0.000124568
0.000132279
0.000133884
0.000137828
1.15817e-07
1.17199e-07
1.18762e-07
1.00088e-06
1.03061e-06
1.06604e-06
3.92676e-06
4.07339e-06
4.24205e-06
9.85518e-06
1.02382e-05
1.7491e-05
2.43454e-05
2.50174e-05
3.0841e-05
3.16003e-05
3.66404e-05
4.17575e-05
4.2945e-05
4.93707e-05
5.69557e-05
6.53589e-05
6.77871e-05
7.76208e-05
8.81191e-05
9.10603e-05
0.000101753
0.000113439
0.000124615
0.000132264
0.000133908
0.000137859
4.4008e-08
4.55006e-08
4.74152e-08
4.30275e-07
4.66171e-07
5.14485e-07
2.54588e-06
2.84339e-06
7.45258e-06
8.29249e-06
1.48736e-05
1.61829e-05
2.31335e-05
2.44106e-05
3.01217e-05
3.13044e-05
3.609e-05
4.10748e-05
4.27079e-05
4.90154e-05
5.67121e-05
6.47322e-05
6.7533e-05
7.73439e-05
8.77774e-05
9.09093e-05
0.000101522
0.000113379
0.000124537
0.000132196
0.000133905
0.000137908
3.36157e-08
3.3858e-08
3.41377e-08
3.44575e-08
3.94815e-07
4.00563e-07
4.07351e-07
2.40696e-06
2.45846e-06
7.17584e-06
7.35244e-06
1.39742e-05
1.43029e-05
2.22191e-05
2.92765e-05
2.96346e-05
3.5514e-05
4.11822e-05
4.17951e-05
4.84337e-05
5.64196e-05
5.78128e-05
6.68607e-05
7.68071e-05
8.75934e-05
9.00123e-05
0.000101223
0.000113039
0.00012437
0.00013231
0.00013385
0.000137809
8.47259e-09
8.73208e-09
9.36311e-09
7.62196e-08
8.56753e-08
1.01749e-07
4.99281e-07
5.87728e-07
1.76532e-06
2.08843e-06
5.07444e-06
6.01891e-06
1.16494e-05
1.4081e-05
2.20612e-05
2.45117e-05
3.20999e-05
3.82167e-05
4.00108e-05
4.64226e-05
5.39869e-05
6.17941e-05
6.50251e-05
7.52274e-05
8.5832e-05
8.91713e-05
0.000100225
0.000112606
0.00012388
0.000131884
0.000133705
0.000137892
1.82572e-09
1.83389e-09
1.84076e-09
1.84496e-09
3.58325e-08
3.65199e-08
2.55469e-07
2.63236e-07
2.70726e-07
1.05685e-06
1.09802e-06
2.71435e-06
6.07297e-06
6.44026e-06
1.2385e-05
1.34242e-05
2.19067e-05
3.11973e-05
3.31489e-05
4.21741e-05
5.08737e-05
5.98706e-05
6.22621e-05
7.23149e-05
8.35114e-05
8.67312e-05
9.83285e-05
0.0001108
0.000122901
0.000131537
0.000133355
0.000137729
1.65877e-09
1.67895e-09
1.70338e-09
1.73308e-09
2.94683e-08
3.03066e-08
2.10278e-07
2.1578e-07
2.24707e-07
8.72602e-07
9.12839e-07
2.25974e-06
4.96654e-06
5.19154e-06
1.00572e-05
1.09409e-05
1.86218e-05
2.81198e-05
3.04359e-05
4.00974e-05
4.90697e-05
5.80755e-05
6.07773e-05
7.09935e-05
8.21374e-05
8.54618e-05
9.73987e-05
0.000110191
0.000122403
0.000131276
0.000133239
0.000137725
1.87777e-09
2.00816e-09
2.17077e-09
2.33409e-09
4.15217e-08
4.93453e-08
2.53934e-07
3.04284e-07
3.73517e-07
9.19086e-07
1.08523e-06
1.96071e-06
3.09526e-06
3.4266e-06
5.40111e-06
6.2929e-06
1.05332e-05
1.82771e-05
2.16583e-05
3.19078e-05
4.33567e-05
5.34274e-05
5.68628e-05
6.77506e-05
7.94421e-05
8.31489e-05
9.51864e-05
0.000108633
0.0001214
0.000130696
0.000132815
0.000137702
2.46898e-09
2.45737e-09
2.44238e-09
2.4232e-09
5.52168e-08
5.51512e-08
4.43384e-07
4.45073e-07
4.45378e-07
1.49486e-06
1.50003e-06
2.75649e-06
4.04309e-06
4.04722e-06
5.32657e-06
5.39367e-06
8.04119e-06
1.36408e-05
1.45517e-05
2.45741e-05
3.63872e-05
3.89008e-05
5.18407e-05
6.42166e-05
7.66933e-05
7.96654e-05
9.27958e-05
0.000106677
0.000120153
0.000130278
0.000132292
0.000137494
2.6923e-09
2.7234e-09
2.79978e-09
2.97478e-09
4.51161e-08
5.11446e-08
3.28068e-07
3.74956e-07
4.58365e-07
1.31333e-06
1.57152e-06
2.76305e-06
3.85732e-06
3.99901e-06
4.91124e-06
5.25739e-06
7.16128e-06
1.09762e-05
1.26081e-05
2.09454e-05
3.26737e-05
3.6896e-05
4.95539e-05
6.28523e-05
7.48902e-05
7.86891e-05
9.15076e-05
0.000105962
0.000119572
0.000129773
0.000132166
0.00013759
5.40194e-09
5.44751e-09
5.48995e-09
5.52253e-09
1.02416e-07
1.05413e-07
6.5335e-07
6.81426e-07
7.07425e-07
2.23877e-06
2.33791e-06
4.57891e-06
6.22393e-06
6.31157e-06
7.34629e-06
7.3631e-06
8.09478e-06
1.03521e-05
1.1113e-05
1.70507e-05
2.69119e-05
3.05656e-05
4.36717e-05
5.81466e-05
7.21381e-05
7.59307e-05
8.94212e-05
0.000104053
0.000118439
0.000129303
0.000131676
0.000137419
4.70344e-09
4.76089e-09
4.83061e-09
4.9152e-09
8.5733e-08
8.81499e-08
5.86563e-07
6.01089e-07
6.24513e-07
2.07635e-06
2.15567e-06
4.40655e-06
6.44258e-06
6.50937e-06
7.82748e-06
7.78594e-06
8.15419e-06
1.00543e-05
1.05779e-05
1.57578e-05
2.48633e-05
2.79859e-05
4.13174e-05
5.63519e-05
7.07341e-05
7.45496e-05
8.84921e-05
0.000103424
0.000117924
0.00012905
0.000131538
0.000137395
0
1.08998e-08
1.21117e-08
1.41505e-08
1.55113e-07
1.92257e-07
2.56494e-07
1.02329e-06
1.33356e-06
3.08881e-06
3.70792e-06
6.35395e-06
7.25015e-06
9.89016e-06
1.14428e-05
1.1365e-05
1.06882e-05
1.11425e-05
1.16447e-05
1.46574e-05
2.1959e-05
2.53229e-05
3.66709e-05
5.22645e-05
6.78296e-05
7.22248e-05
8.6385e-05
0.000102028
0.000117027
0.000128456
0.000131147
0.000137429
2.28698e-08
2.29343e-08
2.30019e-08
3.3334e-07
3.36774e-07
3.40659e-07
1.79444e-06
1.81929e-06
1.84755e-06
5.08656e-06
5.16792e-06
9.43797e-06
1.34155e-05
1.35345e-05
1.53361e-05
1.52853e-05
1.41219e-05
1.36167e-05
1.36164e-05
1.59527e-05
2.222e-05
3.30183e-05
3.54611e-05
5.06159e-05
6.65937e-05
7.00443e-05
8.49799e-05
0.0001008
0.000116513
0.000128401
0.000130885
0.000137271
0
2.73181e-08
2.84452e-08
3.01651e-08
3.31903e-07
3.70782e-07
4.2884e-07
1.81451e-06
2.09594e-06
5.00908e-06
5.65359e-06
9.59224e-06
1.04774e-05
1.41061e-05
1.5994e-05
1.60745e-05
1.4908e-05
1.3994e-05
1.40227e-05
1.5893e-05
2.15175e-05
2.4214e-05
3.49269e-05
4.99864e-05
6.57964e-05
7.01405e-05
8.44484e-05
0.000100759
0.000116361
0.00012812
0.000130876
0.000137389
6.12715e-08
6.22007e-08
6.33281e-08
6.46635e-08
6.8308e-07
7.14231e-07
2.98002e-06
3.1179e-06
3.30045e-06
7.67166e-06
8.07445e-06
1.32305e-05
1.75041e-05
1.79191e-05
1.95063e-05
1.94552e-05
1.79147e-05
1.63244e-05
1.61847e-05
1.74932e-05
2.27456e-05
2.50669e-05
3.59293e-05
5.04046e-05
6.54124e-05
6.91817e-05
8.27385e-05
9.83985e-05
0.000115825
0.000128155
0.000130847
0.000137346
5.90094e-08
5.95128e-08
6.00698e-08
6.06559e-08
7.09707e-07
7.27438e-07
3.26488e-06
3.35392e-06
3.45765e-06
8.21907e-06
8.46062e-06
1.38772e-05
1.81823e-05
1.84657e-05
1.97934e-05
1.97384e-05
1.80924e-05
1.65481e-05
1.64843e-05
1.78123e-05
2.32438e-05
2.52803e-05
3.6407e-05
5.07943e-05
6.55178e-05
6.90421e-05
8.23896e-05
9.7851e-05
0.000115943
0.000128272
0.000130863
0.00013732
9.69736e-08
9.31873e-08
9.78675e-08
1.28365e-07
8.0096e-07
9.65817e-07
3.21206e-06
4.10295e-06
5.12143e-06
9.98693e-06
1.13272e-05
1.66077e-05
1.99033e-05
2.13047e-05
2.18454e-05
2.15893e-05
1.94154e-05
1.80456e-05
1.78504e-05
1.85745e-05
2.41916e-05
2.71517e-05
3.76025e-05
5.19594e-05
6.46373e-05
6.81017e-05
8.01271e-05
9.52769e-05
0.00011523
0.000128341
0.000131035
0.000137486
1.66149e-07
1.67696e-07
1.69514e-07
1.71646e-07
1.40647e-06
1.43185e-06
5.42722e-06
5.50715e-06
5.61334e-06
1.20571e-05
1.22451e-05
1.85417e-05
2.21335e-05
2.22034e-05
2.23145e-05
2.21677e-05
2.01092e-05
1.89967e-05
1.90076e-05
2.05517e-05
2.62215e-05
2.79309e-05
3.86788e-05
5.1351e-05
6.34517e-05
6.60226e-05
7.80311e-05
9.32084e-05
0.000113546
0.000127872
0.000130875
0.000137385
2.12911e-07
2.19633e-07
2.27873e-07
2.36985e-07
1.65496e-06
1.80262e-06
5.62012e-06
6.09081e-06
6.64262e-06
1.26087e-05
1.34685e-05
1.90808e-05
2.22576e-05
2.2535e-05
2.23068e-05
2.18497e-05
2.00943e-05
1.91529e-05
1.92044e-05
2.08475e-05
2.66336e-05
2.95352e-05
3.94964e-05
5.17238e-05
6.33024e-05
6.64357e-05
7.77493e-05
9.25727e-05
0.000113218
0.000127852
0.00013099
0.000137488
2.47959e-07
2.51953e-07
2.5709e-07
2.63634e-07
1.72465e-06
1.80669e-06
5.98975e-06
6.24077e-06
6.61026e-06
1.31226e-05
1.3736e-05
1.97137e-05
2.29011e-05
2.3056e-05
2.27098e-05
2.2358e-05
2.08139e-05
2.03118e-05
2.04116e-05
2.25338e-05
2.84211e-05
3.08355e-05
4.05503e-05
5.16036e-05
6.22219e-05
6.51397e-05
7.6195e-05
9.08877e-05
0.000111524
0.000127388
0.00013098
0.000137506
2.41003e-07
2.42034e-07
2.42967e-07
2.43741e-07
1.88159e-06
1.91075e-06
6.6929e-06
6.8159e-06
6.93979e-06
1.40091e-05
1.42375e-05
2.04127e-05
2.31328e-05
2.31657e-05
2.24788e-05
2.23058e-05
2.08548e-05
2.05647e-05
2.07052e-05
2.32785e-05
2.96087e-05
3.15824e-05
4.13965e-05
5.21058e-05
6.26847e-05
6.53166e-05
7.63668e-05
9.10236e-05
0.000111563
0.000127782
0.000131058
0.000137456
1.62442e-07
1.18235e-07
1.29494e-07
2.92353e-07
1.23082e-06
1.38703e-06
4.9174e-06
6.22263e-06
7.82354e-06
1.40343e-05
1.5351e-05
2.12001e-05
2.32378e-05
2.4233e-05
2.32249e-05
2.28898e-05
2.1767e-05
2.18973e-05
2.21993e-05
2.43575e-05
3.13269e-05
3.93527e-05
4.27512e-05
5.29925e-05
6.25352e-05
6.54714e-05
7.58915e-05
9.00626e-05
0.000111244
0.000127538
0.000131266
0.000137635
2.33228e-07
2.35287e-07
2.37752e-07
2.40634e-07
1.73839e-06
1.76894e-06
6.29875e-06
6.38881e-06
6.51002e-06
1.34929e-05
1.37055e-05
2.04136e-05
2.40462e-05
2.41424e-05
2.44518e-05
2.43777e-05
2.34759e-05
2.36705e-05
2.39081e-05
2.69547e-05
3.33559e-05
3.52062e-05
4.41696e-05
5.36396e-05
6.31291e-05
6.58071e-05
7.65276e-05
9.11149e-05
0.000111201
0.000127432
0.000131301
0.000137457
2.91156e-07
2.97402e-07
3.04785e-07
3.12903e-07
1.99138e-06
2.11802e-06
6.39888e-06
6.81518e-06
7.28097e-06
1.37761e-05
1.45438e-05
2.06535e-05
2.40752e-05
2.4358e-05
2.47073e-05
2.44483e-05
2.36792e-05
2.39497e-05
2.44213e-05
2.75491e-05
3.39074e-05
4.19342e-05
4.4983e-05
5.41875e-05
6.34005e-05
6.67145e-05
7.69386e-05
9.13137e-05
0.000111443
0.000127065
0.000131297
0.000137509
)
;

boundaryField
{
    back
    {
        type            empty;
    }
    bottom
    {
        type            nutkWallFunction;
        value           uniform 0;
    }
    right
    {
        type            cyclicAMI;
        value           nonuniform List<scalar> 
32
(
3.7285e-09
3.7285e-09
3.7285e-09
3.7285e-09
5.98433e-07
5.98433e-07
5.28247e-06
5.28247e-06
5.28247e-06
1.3307e-05
1.3307e-05
2.08859e-05
2.59489e-05
2.59489e-05
2.54999e-05
2.54999e-05
2.43463e-05
2.44875e-05
2.44875e-05
2.77924e-05
3.56949e-05
3.56949e-05
4.56997e-05
5.56487e-05
6.56406e-05
6.56406e-05
7.68494e-05
9.20922e-05
0.000115884
0.000132684
0.000132684
0.000138057
)
;
    }
    top
    {
        type            calculated;
        value           nonuniform List<scalar> 
33
(
0.000138079
0.000138079
0.00013811
0.000138138
0.000138138
0.000138162
0.000138162
0.000138185
0.00013821
0.00013821
0.000138214
0.000138214
0.000138183
0.000138122
0.000138122
0.000138043
0.000138043
0.000137965
0.000137885
0.000137885
0.000137844
0.000137846
0.000137846
0.000137856
0.000137856
0.000137917
0.000137941
0.000137941
0.00013797
0.00013797
0.000138002
0.000138036
0.000138036
)
;
    }
    left
    {
        type            cyclicAMI;
        value           nonuniform List<scalar> 
32
(
3.7285e-09
3.7285e-09
3.7285e-09
3.7285e-09
5.98433e-07
5.98433e-07
5.28247e-06
5.28247e-06
5.28247e-06
1.3307e-05
1.3307e-05
2.08859e-05
2.59489e-05
2.59489e-05
2.54999e-05
2.54999e-05
2.43463e-05
2.44875e-05
2.44875e-05
2.77924e-05
3.56949e-05
3.56949e-05
4.56997e-05
5.56487e-05
6.56406e-05
6.56406e-05
7.68494e-05
9.20922e-05
0.000115884
0.000132684
0.000132684
0.000138057
)
;
    }
    front
    {
        type            empty;
    }
}


// ************************************************************************* //
