/*--------------------------------*- C++ -*----------------------------------*\
  =========                 |
  \\      /  F ield         | OpenFOAM: The Open Source CFD Toolbox
   \\    /   O peration     | Website:  https://openfoam.org
    \\  /    A nd           | Version:  7
     \\/     M anipulation  |
\*---------------------------------------------------------------------------*/
FoamFile
{
    version     2.0;
    format      ascii;
    class       volScalarField;
    location    "0";
    object      k;
}
// * * * * * * * * * * * * * * * * * * * * * * * * * * * * * * * * * * * * * //

dimensions      [0 2 -2 0 0 0 0];

internalField   nonuniform List<scalar> 
1056
(
3.38285e-05
3.4744e-05
9.14417e-05
9.67136e-05
0.000202681
0.000211823
0.000318872
0.000328146
0.000404114
0.000413538
0.000465597
0.000495715
0.000499394
0.000498626
0.00049441
0.000461899
0.000419621
0.000405607
0.000371264
0.000363918
0.000342646
0.000324941
0.000319492
0.000296325
0.000268472
0.00025943
0.000225792
0.000195283
0.000185449
0.000154704
0.000139713
0.000134265
3.06875e-05
3.08138e-05
0.000100167
0.00010154
0.000219694
0.000222243
0.000331535
0.00033418
0.000412949
0.000415701
0.000469966
0.000498086
0.000499069
0.000494633
0.000491984
0.000455952
0.000410142
0.000403229
0.000368267
0.000363443
0.000341709
0.000322992
0.000318599
0.000294951
0.000265716
0.000258442
0.000225054
0.000193064
0.000185009
0.000154454
0.000138889
0.000134201
1.79776e-05
2.06469e-05
7.6437e-05
9.36449e-05
0.000197402
0.000228222
0.000316782
0.000336172
0.000403206
0.000415772
0.00046492
0.00048534
0.000494187
0.000492024
0.000487513
0.00045491
0.000415481
0.000400793
0.000367226
0.000361566
0.000340485
0.000322352
0.000317407
0.000293428
0.000264535
0.000257109
0.000222875
0.000191938
0.000184179
0.000153142
0.000137743
0.000133555
3.11626e-05
3.16705e-05
9.94112e-05
0.000100906
0.000218555
0.000220644
0.000325341
0.000327494
0.00039954
0.000401914
0.000451173
0.000478004
0.000478731
0.000478448
0.000476628
0.000447576
0.000406167
0.000400255
0.000366521
0.000361698
0.00033927
0.00031953
0.000315092
0.000290548
0.00026136
0.0002546
0.000221516
0.000189939
0.00018286
0.000152968
0.000137325
0.000133643
3.71522e-05
3.80448e-05
0.000106971
0.000111355
0.000223286
0.00022975
0.000328659
0.000334695
0.000401952
0.000407694
0.000452368
0.000476245
0.000477999
0.000475982
0.000472059
0.000443641
0.000404909
0.000396225
0.000364583
0.000358654
0.000337792
0.000318268
0.000313186
0.000289163
0.000260166
0.00025319
0.000220383
0.00018943
0.000182251
0.000152461
0.000137324
0.000133522
3.45277e-05
3.58383e-05
9.3189e-05
9.92187e-05
0.000203833
0.000213287
0.000309954
0.000318975
0.000384582
0.000392758
0.000435248
0.000459022
0.000461869
0.000462468
0.000459747
0.000435569
0.000402023
0.000391491
0.000361579
0.000355497
0.000334702
0.000315554
0.000310353
0.000286
0.00025804
0.000250743
0.00021822
0.000188348
0.000180927
0.000151759
0.000137157
0.000133345
3.0483e-05
3.05591e-05
0.000102018
0.000102961
0.000218961
0.000220607
0.000319902
0.000321523
0.000390115
0.000391672
0.000436737
0.000459613
0.000460083
0.00045816
0.000456699
0.000430035
0.000393727
0.000389102
0.000358602
0.000354894
0.000333185
0.000313064
0.000308977
0.000284464
0.000255549
0.000249561
0.000217579
0.000186729
0.000180409
0.00015177
0.000136818
0.000133484
2.74146e-05
3.51159e-05
8.46082e-05
0.000104128
0.000194628
0.000217287
0.000297125
0.00031334
0.000369978
0.000381507
0.000419963
0.000439578
0.000445188
0.000446183
0.000442626
0.000422596
0.000393537
0.00038359
0.00035534
0.000349902
0.00032997
0.000310622
0.000305472
0.000281655
0.000254353
0.000247376
0.000215406
0.000186586
0.000179348
0.000150822
0.000136896
0.000133138
2.32087e-05
2.35313e-05
8.10651e-05
8.25158e-05
0.000180589
0.000182877
0.000274346
0.000276493
0.000338285
0.000340515
0.00038325
0.000409776
0.000411057
0.000419117
0.000418808
0.000406531
0.000382113
0.000377842
0.000351642
0.000347193
0.000326133
0.000306469
0.000302147
0.000278828
0.000251508
0.0002453
0.00021453
0.000185044
0.000178525
0.000150918
0.000136591
0.000133238
2.50487e-05
2.55568e-05
7.97166e-05
8.24314e-05
0.000176274
0.000180576
0.000270033
0.000273965
0.000334232
0.000338138
0.000379288
0.000405215
0.000407474
0.000415746
0.000415408
0.000404507
0.000381916
0.000376412
0.000350886
0.000345697
0.000325219
0.000305886
0.000301174
0.000278202
0.000251251
0.000244767
0.000214105
0.000185054
0.000178326
0.000150738
0.000136638
0.000133159
1.15857e-05
1.23206e-05
4.86401e-05
5.41296e-05
0.00012675
0.000137769
0.000222777
0.000234873
0.000300492
0.000310536
0.000355671
0.000384229
0.000388742
0.000400697
0.000400952
0.000395647
0.000378606
0.000372599
0.000348836
0.000343396
0.000323235
0.000304228
0.000299358
0.000276903
0.000250824
0.000244267
0.000213593
0.000185174
0.00017825
0.000150538
0.000136683
0.000133047
8.84108e-06
8.9533e-06
4.30989e-05
4.37801e-05
0.000116141
0.000117736
0.000211072
0.000213152
0.000283114
0.000285577
0.00034098
0.000378228
0.000379571
0.000396829
0.00039723
0.000393899
0.000377341
0.00037476
0.00035029
0.000346935
0.000324111
0.000303879
0.000300341
0.000277405
0.000250392
0.000244972
0.000214434
0.000184614
0.000178585
0.000151061
0.000136469
0.000133256
2.0215e-06
2.21746e-06
1.15704e-05
1.41147e-05
4.86406e-05
5.88757e-05
0.000115539
0.000132066
0.000195226
0.000210179
0.000268491
0.000317341
0.000334748
0.000367913
0.000374205
0.000386188
0.000380092
0.000377277
0.000356535
0.000350152
0.000326539
0.000306326
0.000301274
0.000278628
0.000253276
0.000246533
0.000215354
0.000186754
0.000179505
0.000151157
0.00013696
0.000133123
3.5375e-07
3.56355e-07
3.45252e-06
3.5454e-06
2.1406e-05
2.21963e-05
7.4012e-05
7.72547e-05
0.000139708
0.000144269
0.000209335
0.00026237
0.000268503
0.000313546
0.000321696
0.000353702
0.000369205
0.000369533
0.000360594
0.000356168
0.000336032
0.000312018
0.000306549
0.000282603
0.000255723
0.000249504
0.000218562
0.00018794
0.000181228
0.000152356
0.000137124
0.000133488
3.16676e-07
3.23109e-07
2.75228e-06
2.8321e-06
1.67634e-05
1.73433e-05
5.90734e-05
6.17698e-05
0.000121456
0.000127101
0.000194569
0.00024885
0.000253268
0.000297491
0.000306041
0.000343198
0.000366302
0.000367749
0.000362896
0.000359441
0.000340262
0.000315844
0.000309673
0.000284798
0.000258423
0.000251564
0.000220066
0.000189537
0.000182137
0.000152843
0.000137374
0.000133508
3.23239e-07
3.63857e-07
2.06554e-06
2.5134e-06
9.73961e-06
1.18817e-05
3.3755e-05
4.13364e-05
8.72688e-05
0.000104232
0.000162177
0.000217657
0.000229221
0.000267897
0.000276414
0.000307474
0.000337156
0.000345743
0.00035804
0.000356531
0.000347885
0.000324234
0.000317594
0.000290643
0.000262914
0.000255991
0.000223258
0.00019205
0.000184446
0.000153643
0.000137856
0.000133639
3.95705e-07
3.92082e-07
2.87367e-06
2.87324e-06
1.20937e-05
1.21357e-05
3.26232e-05
3.28698e-05
7.26177e-05
7.37379e-05
0.000138925
0.000207278
0.00021195
0.000266265
0.000268897
0.000303478
0.000329307
0.000333036
0.000346426
0.000348397
0.000346951
0.00032943
0.00032458
0.000297642
0.000267128
0.000260846
0.000227261
0.000193637
0.000186828
0.000155205
0.000137977
0.000134096
4.33137e-07
4.49303e-07
2.29534e-06
2.64807e-06
9.58e-06
1.12305e-05
2.67206e-05
3.10612e-05
5.95117e-05
6.80141e-05
0.000116782
0.000173797
0.000199125
0.00025553
0.00026968
0.000299781
0.000318601
0.000324853
0.00034267
0.000345796
0.000348473
0.000334141
0.000328913
0.000300547
0.000271187
0.000263459
0.000228885
0.000196289
0.000188011
0.000155463
0.000138537
0.00013395
8.09077e-07
8.1904e-07
5.15441e-06
5.33466e-06
1.82406e-05
1.89079e-05
4.16818e-05
4.31243e-05
7.41798e-05
7.683e-05
0.000122177
0.000186597
0.000197425
0.000263049
0.000273053
0.000314077
0.000329073
0.00033035
0.000339445
0.00034154
0.000344168
0.000335973
0.000331881
0.000307364
0.000275814
0.000268349
0.000232983
0.000198187
0.000190372
0.00015683
0.000138797
0.000134309
7.19346e-07
7.34442e-07
4.58419e-06
4.7067e-06
1.75026e-05
1.78578e-05
4.112e-05
4.18882e-05
7.24045e-05
7.42156e-05
0.000116589
0.000177616
0.000184231
0.000252729
0.000263156
0.000314684
0.000330628
0.000331435
0.000338178
0.000340106
0.000343621
0.000337034
0.000333843
0.000309902
0.000278579
0.00027064
0.000234571
0.000199628
0.000191334
0.000157389
0.000138986
0.000134365
1.50593e-06
1.73783e-06
7.83357e-06
9.84049e-06
2.81167e-05
3.36724e-05
6.25545e-05
7.01358e-05
0.000102086
0.00011038
0.00014495
0.000157645
0.000201873
0.000265856
0.000284348
0.000342548
0.000352714
0.000350793
0.000345041
0.00034476
0.000343555
0.000337716
0.000334893
0.000314715
0.00028286
0.000274812
0.000237352
0.000201983
0.000193332
0.000158004
0.000139431
0.000134373
3.16733e-06
3.18098e-06
1.76206e-05
1.78371e-05
5.52485e-05
5.58878e-05
0.000107489
0.00010849
0.00015894
0.000160169
0.000209103
0.000261383
0.000263665
0.000324184
0.000328326
0.000375672
0.000378616
0.000375462
0.000358013
0.000355039
0.000344905
0.000337072
0.000334959
0.000314934
0.000283447
0.000276755
0.000239205
0.000202089
0.000194383
0.000158891
0.000139272
0.000134642
3.699e-06
3.9164e-06
1.68347e-05
1.8961e-05
5.23848e-05
5.82415e-05
0.000105718
0.000114214
0.000161879
0.000171234
0.000216184
0.000226966
0.000273748
0.000325493
0.000339466
0.00038258
0.000386945
0.000383549
0.000360578
0.000356337
0.000345022
0.000337589
0.00033496
0.00031607
0.000285318
0.00027737
0.000239465
0.000203438
0.000194656
0.000158731
0.0001396
0.00013445
8.21143e-06
8.43445e-06
3.42955e-05
3.59308e-05
9.31218e-05
9.69245e-05
0.000167497
0.000172617
0.000236456
0.000242508
0.000298576
0.000350008
0.000357387
0.000400496
0.000407101
0.000428692
0.000414384
0.000407508
0.000373233
0.000366242
0.000347202
0.000336499
0.000333671
0.000314655
0.000284561
0.000277
0.000239541
0.000203146
0.000194627
0.000158882
0.000139491
0.000134492
7.99788e-06
8.1102e-06
3.72652e-05
3.82392e-05
0.000102327
0.000104692
0.000179149
0.000182406
0.000249015
0.000252992
0.000311848
0.000364846
0.000370458
0.000412044
0.000417138
0.000434192
0.000414102
0.00040844
0.000373118
0.000367186
0.000347199
0.00033585
0.000333116
0.000313906
0.000283649
0.000276487
0.000239252
0.000202551
0.000194422
0.000158853
0.000139351
0.000134536
1.24059e-05
1.29397e-05
4.24561e-05
5.43079e-05
0.000122013
0.000148068
0.000224454
0.000246063
0.000311958
0.00032803
0.000386144
0.000426712
0.00044564
0.000470192
0.000474747
0.00047328
0.00043657
0.000419917
0.00037557
0.000368646
0.000346142
0.000334847
0.000331559
0.000312495
0.000282643
0.000274929
0.000237518
0.000202354
0.000193669
0.000158079
0.000139369
0.000134257
2.14903e-05
2.1837e-05
7.70849e-05
7.83243e-05
0.000183996
0.000186056
0.000290653
0.000293169
0.000374459
0.00037763
0.000440694
0.000484536
0.000486639
0.000500024
0.000499684
0.000477561
0.000427476
0.000420314
0.000375356
0.000370092
0.000346785
0.00033249
0.000329556
0.000309157
0.000279258
0.000272531
0.000236175
0.000200236
0.000192496
0.00015786
0.00013888
0.000134372
2.73625e-05
2.88988e-05
8.41486e-05
9.1571e-05
0.000189855
0.000201554
0.000298534
0.000310091
0.000384541
0.000396061
0.00045232
0.000490336
0.000496289
0.00050571
0.000502974
0.000477009
0.000429249
0.00041554
0.000373768
0.000366925
0.000345602
0.00033196
0.000328275
0.000308269
0.000278646
0.000271234
0.000234972
0.000200149
0.000191913
0.000157235
0.00013898
0.00013419
3.28198e-05
3.37947e-05
9.56225e-05
9.99635e-05
0.000214727
0.000221961
0.000332884
0.000340439
0.000419816
0.000427795
0.000483042
0.000515137
0.000518114
0.000517677
0.000514011
0.000477712
0.000426804
0.000412891
0.00037294
0.000366131
0.000344758
0.000330166
0.000326369
0.000305211
0.000276187
0.000268613
0.000232887
0.000198715
0.000190478
0.000156606
0.000138727
0.000134116
3.19455e-05
3.21394e-05
0.000106126
0.000107871
0.000232562
0.000235695
0.000347458
0.000350715
0.000431464
0.000434852
0.000490441
0.000519071
0.00052029
0.000514782
0.000511717
0.000470173
0.000417065
0.000408718
0.000369857
0.000364805
0.000343897
0.000328646
0.000325125
0.000303671
0.000273905
0.000267172
0.000231968
0.000197258
0.000189826
0.000156397
0.000138452
0.000134198
2.14593e-05
2.10528e-05
8.5245e-05
0.000104992
0.000217706
0.000254834
0.000347565
0.000369286
0.000439068
0.000451879
0.0005021
0.000519117
0.000527561
0.000517179
0.000510328
0.000465024
0.000419396
0.000401771
0.00036732
0.000361992
0.000341755
0.000327413
0.000323273
0.000301365
0.000272299
0.000264792
0.000229277
0.000196585
0.000188445
0.000155257
0.000138432
0.000133882
3.34335e-05
3.39399e-05
0.000105725
0.000107267
0.000232533
0.000234774
0.000349753
0.000352169
0.000432975
0.000435656
0.000489668
0.000515776
0.000516292
0.000507987
0.000504858
0.000463327
0.000412299
0.000405397
0.000369101
0.000364197
0.000342852
0.000326011
0.000321891
0.000299305
0.000270301
0.000262778
0.000228645
0.000195876
0.000187411
0.000155652
0.000139293
0.000134369
4.10439e-05
4.25772e-05
0.000110697
0.000117733
0.000231921
0.000242344
0.000349295
0.000359141
0.000433219
0.000442326
0.000490264
0.000513985
0.000515757
0.00050683
0.000499173
0.000460282
0.000413947
0.000401907
0.000368115
0.000361482
0.000341985
0.000325538
0.000320301
0.000298338
0.00027009
0.000261489
0.000227624
0.000196358
0.000186887
0.000155321
0.000139852
0.000134422
)
;

boundaryField
{
    back
    {
        type            empty;
    }
    bottom
    {
        type            kqRWallFunction;
        value           nonuniform List<scalar> 
33
(
3.08239e-06
3.08239e-06
3.39649e-06
3.72448e-06
3.72448e-06
3.60552e-06
3.60552e-06
3.37706e-06
2.35036e-06
2.35036e-06
9.31739e-07
9.31739e-07
1.67689e-07
2.37793e-08
2.37793e-08
2.3485e-08
2.3485e-08
3.72692e-08
6.2273e-08
6.2273e-08
1.3337e-07
3.09337e-07
3.09337e-07
7.10719e-07
7.10719e-07
1.46737e-06
2.55294e-06
2.55294e-06
3.61798e-06
3.61798e-06
4.17737e-06
3.64192e-06
3.64192e-06
)
;
    }
    right
    {
        type            cyclicAMI;
        value           nonuniform List<scalar> 
32
(
3.36152e-06
3.36152e-06
8.19991e-05
8.19991e-05
0.000240145
0.000240145
0.000349228
0.000349228
0.000429881
0.000429881
0.000488512
0.000516691
0.000516691
0.000511275
0.000511275
0.000459485
0.000400002
0.000400002
0.000363219
0.000363219
0.000341338
0.000323543
0.000323543
0.000297454
0.000262928
0.000262928
0.000225088
0.000186795
0.000186795
0.00015182
0.000132111
0.000132111
)
;
    }
    top
    {
        type            zeroGradient;
    }
    left
    {
        type            cyclicAMI;
        value           nonuniform List<scalar> 
32
(
3.36152e-06
3.36152e-06
8.19991e-05
8.19991e-05
0.000240145
0.000240145
0.000349228
0.000349228
0.000429881
0.000429881
0.000488512
0.000516691
0.000516691
0.000511275
0.000511275
0.000459485
0.000400002
0.000400002
0.000363219
0.000363219
0.000341338
0.000323543
0.000323543
0.000297454
0.000262928
0.000262928
0.000225088
0.000186795
0.000186795
0.00015182
0.000132111
0.000132111
)
;
    }
    front
    {
        type            empty;
    }
}


// ************************************************************************* //
