/*--------------------------------*- C++ -*----------------------------------*\
  =========                 |
  \\      /  F ield         | OpenFOAM: The Open Source CFD Toolbox
   \\    /   O peration     | Website:  https://openfoam.org
    \\  /    A nd           | Version:  7
     \\/     M anipulation  |
\*---------------------------------------------------------------------------*/
FoamFile
{
    version     2.0;
    format      ascii;
    class       volScalarField;
    location    "0";
    object      nut;
}
// * * * * * * * * * * * * * * * * * * * * * * * * * * * * * * * * * * * * * //

dimensions      [0 2 -1 0 0 0 0];

internalField   nonuniform List<scalar> 
1056
(
2.29165e-07
2.35902e-07
1.50831e-06
1.61761e-06
5.31868e-06
5.71884e-06
1.17786e-05
1.25267e-05
1.90055e-05
1.98915e-05
2.4226e-05
2.59848e-05
2.59684e-05
2.57348e-05
2.56199e-05
2.61715e-05
2.8834e-05
2.99999e-05
3.6274e-05
3.85477e-05
4.67726e-05
5.53025e-05
5.7818e-05
6.67487e-05
7.65914e-05
7.97313e-05
9.39423e-05
0.00011186
0.000117776
0.000131118
0.000136023
0.000137492
2.05717e-07
2.06638e-07
1.60743e-06
1.63464e-06
5.89581e-06
6.00791e-06
1.27669e-05
1.29835e-05
1.99314e-05
2.01957e-05
2.47111e-05
2.61012e-05
2.6088e-05
2.58463e-05
2.58296e-05
2.6643e-05
2.99564e-05
3.07777e-05
3.75021e-05
3.90982e-05
4.77223e-05
5.65595e-05
5.85635e-05
6.76427e-05
7.78566e-05
8.0601e-05
9.50164e-05
0.000113739
0.000118848
0.000131217
0.000136246
0.000137511
1.0637e-07
1.25193e-07
9.56585e-07
1.15275e-06
4.5204e-06
5.52948e-06
1.14922e-05
1.30877e-05
1.9567e-05
2.08634e-05
2.57886e-05
2.68612e-05
2.71496e-05
2.70438e-05
2.70826e-05
2.77697e-05
3.11017e-05
3.21797e-05
3.95055e-05
4.17624e-05
5.01904e-05
5.91145e-05
6.13319e-05
7.04298e-05
8.07614e-05
8.35157e-05
9.82519e-05
0.000116425
0.000121522
0.000132446
0.000136592
0.000137699
1.89225e-07
1.92636e-07
1.43152e-06
1.46592e-06
5.49426e-06
5.60459e-06
1.23451e-05
1.25517e-05
1.98202e-05
2.01008e-05
2.56703e-05
2.84217e-05
2.85287e-05
2.95136e-05
2.96117e-05
3.11833e-05
3.53299e-05
3.62367e-05
4.38551e-05
4.56128e-05
5.4972e-05
6.43104e-05
6.63882e-05
7.58364e-05
8.66581e-05
8.93923e-05
0.000103658
0.00012003
0.000123452
0.000132623
0.000136737
0.00013769
2.29325e-07
2.35342e-07
1.63767e-06
1.73123e-06
5.83562e-06
6.1621e-06
1.2715e-05
1.32949e-05
2.02081e-05
2.08782e-05
2.60091e-05
2.87048e-05
2.89054e-05
2.99342e-05
3.01102e-05
3.18575e-05
3.60669e-05
3.74506e-05
4.51279e-05
4.74651e-05
5.64966e-05
6.57808e-05
6.81106e-05
7.73611e-05
8.81919e-05
9.11553e-05
0.000105367
0.000120301
0.000123776
0.00013278
0.000136738
0.000137721
1.99593e-07
2.079e-07
1.33563e-06
1.4526e-06
5.00172e-06
5.43478e-06
1.15538e-05
1.23946e-05
1.93537e-05
2.04022e-05
2.6192e-05
3.01149e-05
3.07674e-05
3.29958e-05
3.34235e-05
3.5938e-05
4.04931e-05
4.22257e-05
5.05926e-05
5.32216e-05
6.31848e-05
7.26007e-05
7.50579e-05
8.49919e-05
9.50386e-05
9.79574e-05
0.000110926
0.000122428
0.000124993
0.00013304
0.000136802
0.000137773
1.7417e-07
1.74656e-07
1.41272e-06
1.42948e-06
5.50198e-06
5.57604e-06
1.25029e-05
1.26598e-05
2.03123e-05
2.05259e-05
2.68429e-05
3.09279e-05
3.11116e-05
3.37475e-05
3.39329e-05
3.71977e-05
4.27512e-05
4.38001e-05
5.24078e-05
5.40755e-05
6.40219e-05
7.39684e-05
7.57888e-05
8.59053e-05
9.65943e-05
9.89788e-05
0.000111346
0.000123001
0.000125145
0.000133048
0.000136888
0.000137737
1.45639e-07
1.91201e-07
1.0067e-06
1.37583e-06
4.30114e-06
5.38132e-06
1.09361e-05
1.26218e-05
1.93204e-05
2.10132e-05
2.68428e-05
3.10092e-05
3.2273e-05
3.59221e-05
3.68966e-05
4.10896e-05
4.62822e-05
4.81852e-05
5.59343e-05
5.79865e-05
6.63723e-05
7.57733e-05
7.81526e-05
8.86137e-05
9.86527e-05
0.000101247
0.000113076
0.000123094
0.000125589
0.000133364
0.000136887
0.000137829
1.06458e-07
1.08081e-07
9.8911e-07
1.01497e-06
4.02513e-06
4.12644e-06
9.92071e-06
1.01403e-05
1.75255e-05
1.7876e-05
2.49217e-05
3.08206e-05
3.12475e-05
3.62974e-05
3.68569e-05
4.20425e-05
4.83053e-05
4.93607e-05
5.69248e-05
5.84647e-05
6.70812e-05
7.65831e-05
7.86568e-05
8.89569e-05
9.94786e-05
0.000101784
0.000113099
0.000123467
0.000125697
0.000133342
0.000136975
0.000137806
1.16396e-07
1.18935e-07
1.01794e-06
1.06462e-06
3.95789e-06
4.14355e-06
9.70338e-06
1.01005e-05
1.73207e-05
1.79228e-05
2.48018e-05
3.06226e-05
3.13008e-05
3.62694e-05
3.70723e-05
4.21709e-05
4.82737e-05
4.963e-05
5.70314e-05
5.88813e-05
6.72639e-05
7.66575e-05
7.89138e-05
8.90959e-05
9.9487e-05
0.000101892
0.000113194
0.000123432
0.000125733
0.000133397
0.000136963
0.000137825
4.4607e-08
4.7639e-08
4.50258e-07
5.12469e-07
2.6049e-06
3.00233e-06
7.89024e-06
8.97903e-06
1.57752e-05
1.71893e-05
2.40357e-05
2.97016e-05
3.08331e-05
3.5588e-05
3.66776e-05
4.16064e-05
4.74889e-05
4.93214e-05
5.68097e-05
5.89112e-05
6.70217e-05
7.62803e-05
7.86221e-05
8.88557e-05
9.91559e-05
0.000101672
0.000113147
0.000123229
0.000125642
0.000133448
0.000136951
0.000137849
3.3717e-08
3.41695e-08
3.92784e-07
4.00328e-07
2.37403e-06
2.42764e-06
7.10979e-06
7.28627e-06
1.38872e-05
1.42034e-05
2.21142e-05
2.91853e-05
2.94862e-05
3.5353e-05
3.57138e-05
4.13816e-05
4.78111e-05
4.85993e-05
5.64641e-05
5.76686e-05
6.64703e-05
7.61219e-05
7.7863e-05
8.8362e-05
9.92676e-05
0.000101344
0.000112794
0.0001234
0.000125464
0.000133303
0.000137003
0.000137795
8.55508e-09
9.46109e-09
8.12972e-08
1.00958e-07
5.16847e-07
6.41179e-07
1.94202e-06
2.34861e-06
5.73844e-06
7.06081e-06
1.34722e-05
2.07968e-05
2.37169e-05
3.09188e-05
3.27567e-05
3.91132e-05
4.4745e-05
4.66609e-05
5.41105e-05
5.62358e-05
6.46031e-05
7.39183e-05
7.64001e-05
8.72054e-05
9.76277e-05
0.000100366
0.000112289
0.000122487
0.000125048
0.000133248
0.000136873
0.000137818
1.82938e-09
1.84137e-09
3.55515e-08
3.6495e-08
2.5723e-07
2.66521e-07
1.03849e-06
1.08397e-06
2.67609e-06
2.8029e-06
6.32572e-06
1.2082e-05
1.3025e-05
2.11141e-05
2.27629e-05
3.1921e-05
4.08467e-05
4.24842e-05
5.09481e-05
5.28762e-05
6.16826e-05
7.13973e-05
7.37825e-05
8.44716e-05
9.58982e-05
9.84873e-05
0.000110537
0.000121709
0.000124114
0.000132781
0.00013678
0.0001377
1.6671e-09
1.70625e-09
2.92045e-08
3.02697e-08
2.11299e-07
2.19097e-07
8.61487e-07
8.96122e-07
2.23261e-06
2.34804e-06
5.10421e-06
9.88753e-06
1.05419e-05
1.78718e-05
1.95603e-05
2.89509e-05
3.85491e-05
4.04459e-05
4.91618e-05
5.11829e-05
6.02368e-05
6.98168e-05
7.23626e-05
8.3364e-05
9.46819e-05
9.75408e-05
0.000109878
0.000121082
0.000123746
0.000132621
0.000136715
0.00013769
1.92978e-09
2.18876e-09
3.90012e-08
4.90231e-08
2.63512e-07
3.32725e-07
8.62345e-07
1.02256e-06
1.8965e-06
2.15508e-06
3.30768e-06
5.22684e-06
5.84211e-06
9.92741e-06
1.17962e-05
1.91398e-05
2.92454e-05
3.24265e-05
4.35028e-05
4.63822e-05
5.628e-05
6.67038e-05
6.93684e-05
8.06277e-05
9.24365e-05
9.53633e-05
0.00010839
0.000119903
0.000122681
0.000132274
0.000136534
0.000137626
2.46426e-09
2.44061e-09
5.52132e-08
5.51551e-08
4.43867e-07
4.45406e-07
1.49081e-06
1.49894e-06
2.75564e-06
2.75569e-06
4.04634e-06
5.30289e-06
5.37006e-06
7.91814e-06
8.16133e-06
1.39946e-05
2.31096e-05
2.48881e-05
3.64933e-05
3.87258e-05
5.12252e-05
6.32104e-05
6.55218e-05
7.77091e-05
9.02459e-05
9.29338e-05
0.000106361
0.000118966
0.000121511
0.000131628
0.000136424
0.00013747
2.70251e-09
2.81237e-09
4.36041e-08
5.08483e-08
3.36024e-07
4.04645e-07
1.21672e-06
1.47295e-06
2.65447e-06
2.96098e-06
3.96061e-06
4.77373e-06
5.11507e-06
6.87577e-06
7.48709e-06
1.15336e-05
1.83276e-05
2.13327e-05
3.28976e-05
3.63401e-05
4.904e-05
6.09857e-05
6.40877e-05
7.6247e-05
8.84359e-05
9.16878e-05
0.000105629
0.000117928
0.000121023
0.000131531
0.000136271
0.000137503
5.42187e-09
5.494e-09
1.01197e-07
1.05304e-07
6.59707e-07
6.93121e-07
2.19241e-06
2.30546e-06
4.52158e-06
4.7054e-06
6.2896e-06
7.34612e-06
7.35454e-06
8.01186e-06
8.20188e-06
1.0588e-05
1.58452e-05
1.73984e-05
2.70206e-05
3.01587e-05
4.27208e-05
5.67671e-05
6.00896e-05
7.33251e-05
8.66098e-05
8.96038e-05
0.000103762
0.000116963
0.00011989
0.000130963
0.000136136
0.000137373
4.72715e-09
4.83876e-09
8.49685e-08
8.80438e-08
5.89271e-07
6.0981e-07
2.05437e-06
2.12282e-06
4.37328e-06
4.51568e-06
6.48289e-06
7.84739e-06
7.79783e-06
8.11094e-06
8.22058e-06
1.0216e-05
1.47941e-05
1.60069e-05
2.49759e-05
2.76383e-05
4.0497e-05
5.46712e-05
5.81776e-05
7.21831e-05
8.54689e-05
8.86517e-05
0.000103074
0.000116381
0.000119489
0.000130755
0.000136082
0.000137353
1.05313e-08
1.22894e-08
1.45669e-07
1.90378e-07
8.87624e-07
1.13047e-06
2.87812e-06
3.44382e-06
6.14595e-06
6.92193e-06
9.71575e-06
1.04141e-05
1.16014e-05
1.09563e-05
1.0773e-05
1.11955e-05
1.40024e-05
1.49448e-05
2.204e-05
2.47728e-05
3.56795e-05
5.05589e-05
5.42665e-05
6.94999e-05
8.32421e-05
8.65883e-05
0.000101767
0.000115262
0.000118538
0.000130446
0.000135895
0.000137326
2.28974e-08
2.3009e-08
3.35335e-07
3.40506e-07
1.7998e-06
1.83098e-06
5.05429e-06
5.13835e-06
9.40131e-06
9.53131e-06
1.34958e-05
1.535e-05
1.53053e-05
1.42347e-05
1.40172e-05
1.35982e-05
1.56575e-05
1.60396e-05
2.22671e-05
2.3589e-05
3.48838e-05
4.94318e-05
5.22368e-05
6.78305e-05
8.22535e-05
8.51355e-05
0.000100468
0.000115116
0.000118013
0.000130071
0.00013591
0.000137239
2.68788e-08
2.85963e-08
3.20808e-07
3.68988e-07
1.66555e-06
1.92095e-06
4.77674e-06
5.40568e-06
9.34239e-06
1.0203e-05
1.38806e-05
1.46088e-05
1.61577e-05
1.52029e-05
1.47113e-05
1.39014e-05
1.5358e-05
1.60483e-05
2.15929e-05
2.37849e-05
3.41766e-05
4.82723e-05
5.18978e-05
6.75562e-05
8.12626e-05
8.46426e-05
0.000100349
0.000114596
0.000117908
0.000130127
0.000135816
0.000137294
6.16519e-08
6.34593e-08
6.72758e-07
7.12923e-07
3.00762e-06
3.19066e-06
7.52537e-06
7.92407e-06
1.30864e-05
1.36071e-05
1.7787e-05
1.94798e-05
1.95084e-05
1.81455e-05
1.76714e-05
1.62297e-05
1.7107e-05
1.76126e-05
2.28114e-05
2.47496e-05
3.52269e-05
4.89081e-05
5.22419e-05
6.69469e-05
7.99862e-05
8.29095e-05
9.80927e-05
0.000113853
0.000117596
0.000130048
0.000135851
0.000137285
5.92231e-08
6.01312e-08
7.03304e-07
7.26708e-07
3.28381e-06
3.39673e-06
8.12356e-06
8.37341e-06
1.37824e-05
1.41137e-05
1.83771e-05
1.97874e-05
1.97745e-05
1.82514e-05
1.79159e-05
1.6505e-05
1.74454e-05
1.79213e-05
2.33022e-05
2.50345e-05
3.5728e-05
4.94911e-05
5.25865e-05
6.68097e-05
7.98822e-05
8.25585e-05
9.75404e-05
0.000114123
0.000117676
0.000130048
0.000135893
0.000137277
9.50451e-08
9.96083e-08
7.45991e-07
9.5555e-07
3.44442e-06
4.42388e-06
9.17436e-06
1.07792e-05
1.60643e-05
1.7321e-05
2.10874e-05
2.17864e-05
2.19936e-05
1.99061e-05
1.92819e-05
1.77763e-05
1.85952e-05
1.882e-05
2.42602e-05
2.66232e-05
3.69723e-05
4.99027e-05
5.30279e-05
6.6208e-05
7.751e-05
8.03164e-05
9.51929e-05
0.000112611
0.000117212
0.00013033
0.000135892
0.000137371
1.66791e-07
1.69723e-07
1.39782e-06
1.43079e-06
5.44352e-06
5.5489e-06
1.19925e-05
1.21725e-05
1.84868e-05
1.86971e-05
2.21803e-05
2.23477e-05
2.22312e-05
2.01772e-05
2.00289e-05
1.89902e-05
2.02541e-05
2.06486e-05
2.62715e-05
2.77328e-05
3.81369e-05
5.03526e-05
5.25895e-05
6.4406e-05
7.57675e-05
7.81595e-05
9.28771e-05
0.000111314
0.000115614
0.000129968
0.000136059
0.000137353
2.15645e-07
2.2881e-07
1.60447e-06
1.79661e-06
5.71822e-06
6.32149e-06
1.2259e-05
1.31623e-05
1.88389e-05
1.96659e-05
2.24913e-05
2.24318e-05
2.20506e-05
2.02834e-05
1.99212e-05
1.91058e-05
2.03817e-05
2.10517e-05
2.67052e-05
2.9108e-05
3.88104e-05
5.04666e-05
5.31368e-05
6.43706e-05
7.53552e-05
7.7933e-05
9.23497e-05
0.000110851
0.00011521
0.000130245
0.000136031
0.000137408
2.49579e-07
2.57706e-07
1.69928e-06
1.80307e-06
6.03756e-06
6.38365e-06
1.29157e-05
1.35011e-05
1.95564e-05
2.01327e-05
2.30144e-05
2.28061e-05
2.24956e-05
2.09339e-05
2.07065e-05
2.03166e-05
2.19648e-05
2.26913e-05
2.85087e-05
3.05264e-05
3.9993e-05
5.03868e-05
5.28562e-05
6.32758e-05
7.37781e-05
7.63619e-05
9.06249e-05
0.000109114
0.000113719
0.000130124
0.000136127
0.000137443
2.41452e-07
2.4306e-07
1.87021e-06
1.90966e-06
6.72047e-06
6.86943e-06
1.39073e-05
1.41594e-05
2.03399e-05
2.05787e-05
2.31586e-05
2.25339e-05
2.23702e-05
2.09059e-05
2.08046e-05
2.06058e-05
2.2748e-05
2.34272e-05
2.96721e-05
3.13753e-05
4.08497e-05
5.12377e-05
5.33432e-05
6.34932e-05
7.42171e-05
7.65258e-05
9.07072e-05
0.000109616
0.000113643
0.000130179
0.000136207
0.000137422
1.45139e-07
1.41786e-07
1.19194e-06
1.35364e-06
5.35171e-06
6.58176e-06
1.29261e-05
1.46419e-05
2.04746e-05
2.13399e-05
2.42129e-05
2.35131e-05
2.29305e-05
2.20083e-05
2.18573e-05
2.17284e-05
2.40301e-05
2.47761e-05
3.1434e-05
3.36113e-05
4.23734e-05
5.17008e-05
5.39483e-05
6.35624e-05
7.35394e-05
7.60945e-05
9.01352e-05
0.000108727
0.000113411
0.000130611
0.000136257
0.000137533
2.34084e-07
2.38033e-07
1.72801e-06
1.76766e-06
6.31701e-06
6.43635e-06
1.34202e-05
1.36232e-05
2.03514e-05
2.05894e-05
2.41112e-05
2.44669e-05
2.44104e-05
2.34936e-05
2.34579e-05
2.37376e-05
2.64095e-05
2.71113e-05
3.34162e-05
3.50059e-05
4.36871e-05
5.27847e-05
5.47741e-05
6.40182e-05
7.40672e-05
7.66906e-05
9.0723e-05
0.000108768
0.000113776
0.0001303
0.000136061
0.000137416
2.9373e-07
3.05618e-07
1.94634e-06
2.11298e-06
6.48717e-06
7.01226e-06
1.34569e-05
1.42752e-05
2.0421e-05
2.12098e-05
2.42978e-05
2.47804e-05
2.4556e-05
2.37443e-05
2.36346e-05
2.4053e-05
2.66517e-05
2.7821e-05
3.39982e-05
3.63712e-05
4.44032e-05
5.31209e-05
5.55219e-05
6.44206e-05
7.4145e-05
7.7162e-05
9.0999e-05
0.000108488
0.000114114
0.000130477
0.000135908
0.000137404
)
;

boundaryField
{
    back
    {
        type            empty;
    }
    bottom
    {
        type            nutkWallFunction;
        value           uniform 0;
    }
    right
    {
        type            cyclicAMI;
        value           nonuniform List<scalar> 
32
(
3.7285e-09
3.7285e-09
5.98433e-07
5.98433e-07
5.28247e-06
5.28247e-06
1.3307e-05
1.3307e-05
2.08859e-05
2.08859e-05
2.59489e-05
2.54999e-05
2.54999e-05
2.43463e-05
2.43463e-05
2.44875e-05
2.77924e-05
2.77924e-05
3.56949e-05
3.56949e-05
4.56997e-05
5.56487e-05
5.56487e-05
6.56406e-05
7.68494e-05
7.68494e-05
9.20922e-05
0.000115884
0.000115884
0.000132684
0.000138057
0.000138057
)
;
    }
    top
    {
        type            calculated;
        value           nonuniform List<scalar> 
33
(
0.000138079
0.000138079
0.00013811
0.000138138
0.000138138
0.000138162
0.000138162
0.000138185
0.00013821
0.00013821
0.000138214
0.000138214
0.000138183
0.000138122
0.000138122
0.000138043
0.000138043
0.000137965
0.000137885
0.000137885
0.000137844
0.000137846
0.000137846
0.000137856
0.000137856
0.000137917
0.000137941
0.000137941
0.00013797
0.00013797
0.000138002
0.000138036
0.000138036
)
;
    }
    left
    {
        type            cyclicAMI;
        value           nonuniform List<scalar> 
32
(
3.7285e-09
3.7285e-09
5.98433e-07
5.98433e-07
5.28247e-06
5.28247e-06
1.3307e-05
1.3307e-05
2.08859e-05
2.08859e-05
2.59489e-05
2.54999e-05
2.54999e-05
2.43463e-05
2.43463e-05
2.44875e-05
2.77924e-05
2.77924e-05
3.56949e-05
3.56949e-05
4.56997e-05
5.56487e-05
5.56487e-05
6.56406e-05
7.68494e-05
7.68494e-05
9.20922e-05
0.000115884
0.000115884
0.000132684
0.000138057
0.000138057
)
;
    }
    front
    {
        type            empty;
    }
}


// ************************************************************************* //
