/*--------------------------------*- C++ -*----------------------------------*\
  =========                 |
  \\      /  F ield         | OpenFOAM: The Open Source CFD Toolbox
   \\    /   O peration     | Website:  https://openfoam.org
    \\  /    A nd           | Version:  7
     \\/     M anipulation  |
\*---------------------------------------------------------------------------*/
FoamFile
{
    version     2.0;
    format      ascii;
    class       volScalarField;
    location    "0";
    object      omega;
}
// * * * * * * * * * * * * * * * * * * * * * * * * * * * * * * * * * * * * * //

dimensions      [0 0 -1 0 0 0 0];

internalField   nonuniform List<scalar> 
1056
(
595.906
586.107
388.467
365.829
75.4011
71.1497
32.3197
30.9573
22.1319
21.5691
18.9223
17.7757
17.6262
16.5141
16.1656
14.1582
11.6889
10.8437
8.44824
7.86086
6.17868
4.96941
4.65377
3.68699
2.95175
2.74017
2.10234
1.65746
1.52169
1.17725
1.02883
0.977246
636.612
635.436
321.057
314.889
66.2246
65.0598
30.1692
29.7886
21.4428
21.2764
18.65
17.5024
17.4266
16.1348
15.9429
13.7264
11.0266
10.5711
8.15558
7.763
6.07633
4.84007
4.60176
3.65136
2.88319
2.7186
2.09188
1.62552
1.51598
1.17459
1.02103
0.976633
804.548
776.677
392.27
246.155
76.7392
57.6806
31.5732
28.258
21.1516
20.468
17.969
17.0636
16.7678
15.6026
15.1999
13.1415
10.8555
10.0128
7.74277
7.32804
5.78602
4.71004
4.46791
3.52292
2.83753
2.67171
2.0409
1.6047
1.49908
1.15901
1.0098
0.970392
712.349
707.48
355.906
351.723
72.2309
71.2968
31.0855
30.7341
21.0299
20.8451
17.5871
16.0519
15.9615
14.5311
14.3441
12.2793
9.83993
9.48559
7.3832
7.06497
5.61642
4.53513
4.33585
3.46764
2.75727
2.61395
2.02163
1.57474
1.48152
1.15666
1.00551
0.9711
658.596
649.701
355.618
338.989
71.595
68.3828
30.7198
29.7091
20.777
20.3512
17.3722
15.906
15.7123
14.3086
13.9614
11.9727
9.69272
9.17546
7.21367
6.82817
5.50312
4.46706
4.25218
3.41788
2.72998
2.58397
2.0001
1.56785
1.47328
1.15117
1.0055
0.969977
695.574
682.092
420.532
392.145
83.1174
77.4357
32.8116
31.0785
20.9742
20.2318
16.8623
15.1538
14.8817
13.4811
13.1058
11.2462
9.24804
8.65013
6.87838
6.50741
5.26695
4.32899
4.11456
3.31374
2.67708
2.52657
1.9619
1.55177
1.45486
1.14337
1.00371
0.968273
738.867
738.106
340.407
335.369
71.6453
70.6338
30.2278
29.904
20.1078
19.953
16.4869
14.7323
14.6393
13.0689
12.917
10.8976
8.74289
8.47247
6.68063
6.45349
5.1945
4.23144
4.07261
3.28586
2.62548
2.50613
1.95492
1.53075
1.44985
1.14369
1.00056
0.969577
776.498
696.099
410.863
321.289
85.4083
70.2266
32.7821
29.3767
20.0516
19.0602
15.8207
14.2785
13.861
12.4709
12.059
10.32
8.59062
8.01436
6.40624
6.10728
4.9969
4.14162
3.9504
3.18691
2.60073
2.46016
1.91342
1.52812
1.43471
1.13316
1.00109
0.966329
743.357
738.911
388.799
382.34
92.9787
91.1846
35.0135
34.4013
20.9559
20.638
15.8484
13.4685
13.3233
11.6646
11.4841
9.79906
8.03341
7.77503
6.26871
6.03016
4.92151
4.04762
3.88594
3.16366
2.5539
2.43209
1.91079
1.51041
1.42764
1.13446
0.998159
0.967246
715.759
708.811
400.718
387.829
95.8713
92.4532
35.5302
34.4223
20.9988
20.4644
15.7746
13.4151
13.1905
11.5822
11.3278
9.71933
8.03528
7.70184
6.24109
5.96232
4.8913
4.035
3.86047
3.14928
2.55094
2.42378
1.90423
1.51098
1.42541
1.13252
0.998596
0.966529
716.704
694.814
438.635
402.537
123.572
112.377
47.8362
43.2764
22.3261
21.0716
15.2946
13.0981
12.7573
11.3498
11.0294
9.61254
8.10214
7.66505
6.21721
5.9192
4.866
4.02935
3.84922
3.13614
2.55494
2.42303
1.89788
1.51454
1.42548
1.1304
0.999017
0.965537
800.068
796.708
392.794
390.334
120.962
119.763
52.9937
52.1895
25.8997
25.5225
16.2168
13.1374
13.054
11.3199
11.2216
9.63713
8.01968
7.84067
6.29356
6.10932
4.93465
4.03588
3.90177
3.16947
2.54748
2.43984
1.91557
1.5075
1.43099
1.13596
0.997052
0.967468
770.72
739.816
505.168
423.488
150.051
136.043
86.8077
78.168
49.2011
42.8007
25.0351
16.715
15.1372
12.2035
11.7024
9.97039
8.61431
8.16894
6.67818
6.33326
5.09296
4.19267
3.98934
3.2115
2.62253
2.47778
1.92752
1.53731
1.44243
1.13686
1.00168
0.966314
726.613
724.354
379.348
370.489
105.983
104.898
70.3509
69.9958
56.7399
55.7564
40.8843
28.5134
26.8918
17.7897
16.8229
11.8499
9.29735
8.94566
7.21881
6.88298
5.54543
4.43722
4.22206
3.38442
2.69953
2.56238
1.99367
1.55841
1.4693
1.15065
1.00369
0.969887
755.057
747.748
426.181
418.836
107.298
106.28
68.8978
68.9161
58.9484
58.2748
45.1543
32.3697
30.7663
20.1517
18.7936
12.7645
9.78594
9.35766
7.53091
7.17026
5.74568
4.59605
4.34411
3.45541
2.76417
2.60642
2.01973
1.58017
1.48061
1.15581
1.00602
0.970097
679.973
630.147
373.241
323.189
75.7271
67.8944
39.8748
40.3412
40.3788
41.3346
42.1835
38.4888
36.8997
28.9377
26.0858
17.9949
12.5447
11.4085
8.46859
7.98333
6.27429
4.94219
4.66197
3.63374
2.88407
2.71605
2.07254
1.61845
1.51299
1.16486
1.01109
0.971535
735.214
738.36
309.703
304.601
62.5142
61.6031
28.0261
27.9455
26.3342
26.834
30.3415
32.681
33.0287
30.4806
30.085
22.8049
16.3194
15.2309
10.3617
9.7649
7.05428
5.34254
5.07195
3.89589
3.00979
2.84872
2.16086
1.64658
1.54986
1.18374
1.013
0.976129
697.698
686.333
468.26
401.211
84.8304
72.3851
30.542
27.2524
21.7362
21.9584
25.8401
30.2878
32.2975
32.2393
31.4467
25.8005
19.497
16.4993
11.2293
10.2432
7.27626
5.61209
5.23935
3.98063
3.11965
2.91031
2.18436
1.68491
1.56438
1.18605
1.01833
0.974758
610.797
607.201
309.575
298.57
63.0974
60.8341
25.6072
24.859
17.3742
17.222
18.4003
22.7656
23.7687
26.9628
27.3618
26.2227
20.9995
19.5801
13.7348
12.467
8.5811
6.14253
5.72639
4.27018
3.24343
3.04341
2.26995
1.71687
1.60154
1.2025
1.02148
0.97844
635.982
630.357
343.581
337.706
68.8876
67.5007
27.3137
26.7556
17.6558
17.4536
17.3145
20.9508
21.578
25.6591
26.3096
26.6652
22.1669
20.8963
14.7863
13.4609
9.04708
6.41425
5.94161
4.37788
3.32179
3.1
2.30259
1.73845
1.61471
1.20894
1.0233
0.978991
585.774
547.028
340.095
275.122
70.3158
59.2076
28.2545
25.3853
17.7108
16.8759
15.0082
15.1799
16.7262
20.9764
22.2283
25.0692
22.9668
21.9883
16.0659
14.6598
9.96076
7.00273
6.43409
4.58265
3.46857
3.22229
2.35228
1.77871
1.64498
1.21641
1.02828
0.979293
578.614
577.776
259.508
255.324
59.1376
58.2352
26.1375
25.8263
17.7313
17.5936
15.4818
16.3172
16.4306
19.904
20.2492
22.9144
21.5383
21.1636
16.1203
15.2821
10.4452
7.17224
6.71203
4.76326
3.50069
3.29051
2.40206
1.78179
1.66331
1.22791
1.02708
0.98201
533.285
518.212
327.678
291.928
69.387
62.2636
28.4651
26.3367
18.3945
17.6578
15.6443
15.5705
16.3201
19.0036
19.8894
22.5364
21.8885
21.3263
16.5007
15.1637
10.4897
7.35003
6.73348
4.75836
3.56067
3.30131
2.39809
1.80271
1.6656
1.22543
1.03027
0.980139
529.727
522.827
291.662
279.56
62.3591
59.8051
27.0166
26.2
18.7664
18.4571
16.7674
17.3312
17.5491
19.5192
19.9299
21.4445
20.3547
19.8014
15.5747
14.4787
10.2076
7.18703
6.63714
4.74996
3.53352
3.29003
2.40135
1.79689
1.6657
1.2277
1.02921
0.980548
542.038
538.596
271.101
263.999
59.1599
57.6497
26.3609
25.8742
18.7058
18.5214
16.9404
17.6515
17.8285
19.7482
20.0511
21.2863
19.9347
19.416
15.2208
14.2582
10.0674
7.07853
6.57944
4.72713
3.50266
3.27639
2.39707
1.78764
1.66326
1.22766
1.02784
0.98095
602.2
593.325
375.43
253.962
69.6315
52.7135
28.3995
25.1685
19.8653
19.2529
18.1868
18.6874
19.0519
20.2473
20.5371
20.8489
18.9869
18.2329
13.9598
12.9502
9.16447
6.75253
6.25031
4.50682
3.45278
3.21043
2.34596
1.78137
1.64845
1.21804
1.02793
0.978148
596.765
593.119
280.186
277.297
57.2589
56.6551
27.1785
26.9768
20.6107
20.5413
19.2978
19.6834
19.7354
20.3145
20.308
19.5616
16.9934
16.5135
12.5964
11.9413
8.61617
6.29103
5.93709
4.40971
3.32612
3.13325
2.32394
1.74476
1.63047
1.2158
1.02286
0.979129
539.62
522.44
301.911
275.575
59.682
55.2474
27.6555
26.4765
20.8108
20.4851
19.4898
19.7856
19.9329
20.3066
20.2651
19.343
16.8144
15.9414
12.1992
11.3029
8.31338
6.18043
5.7744
4.3166
3.30526
3.09312
2.29261
1.74306
1.6206
1.20836
1.02383
0.977362
585.027
576.469
334.377
319.429
64.1985
61.5032
29.288
28.4603
21.7454
21.4528
20.0035
19.9403
19.9766
19.7854
19.6534
18.1248
15.3378
14.4606
11.0491
10.2844
7.63855
5.82258
5.452
4.1471
3.21051
3.00464
2.24895
1.71707
1.59709
1.20091
1.02107
0.97652
598.346
596.719
283.279
276.667
57.6863
56.5327
27.8904
27.5487
21.398
21.2813
19.9672
19.9396
19.9526
19.5601
19.4359
17.5873
14.5397
13.9306
10.5654
9.97412
7.44232
5.65014
5.34493
4.09197
3.1458
2.97011
2.23357
1.69553
1.58878
1.19881
1.0184
0.977303
733.509
737.026
373.671
212.115
69.6647
50.8983
29.979
26.9836
21.6413
21.1827
19.7783
19.5657
19.5924
18.8642
18.5205
16.3971
13.6796
12.6367
9.56118
8.98611
6.78078
5.37408
5.06473
3.87897
3.07928
2.88799
2.16826
1.68098
1.56452
1.1848
1.01773
0.974076
618.367
613.846
323.89
319.96
65.0134
64.1987
29.9017
29.6125
21.8579
21.726
19.585
18.8357
18.7767
17.7243
17.5316
15.3156
12.3503
11.8812
9.06019
8.6081
6.60458
5.17851
4.91562
3.84836
3.01528
2.83684
2.16312
1.6693
1.55213
1.18905
1.02552
0.978574
551.181
537.312
338.522
316.589
66.5434
62.6003
30.1061
28.9414
21.8267
21.413
19.4805
18.7125
18.5809
17.5252
17.1077
14.9979
12.2853
11.49
8.86483
8.26812
6.46087
5.12571
4.81807
3.79182
3.01007
2.80773
2.14053
1.67696
1.54556
1.18528
1.03084
0.979062
)
;

boundaryField
{
    back
    {
        type            empty;
    }
    bottom
    {
        type            omegaWallFunction;
        value           nonuniform List<scalar> 
33
(
915.073
915.073
957.033
993.538
993.538
1017.96
1017.96
1028.08
1027.99
1027.99
1029.75
1029.75
1055.95
1072.59
1072.59
1048.78
1048.78
985.785
898.857
898.857
811.416
758.474
758.474
757.519
757.519
782.038
816.542
816.542
850.576
850.576
876.577
890.404
890.404
)
;
    }
    right
    {
        type            cyclicAMI;
        value           nonuniform List<scalar> 
32
(
902.766
902.766
137.34
137.34
45.5275
45.5275
26.2553
26.2553
20.5805
20.5805
18.8253
18.2097
18.2097
17.1726
17.1726
14.5729
11.1199
11.1199
8.1534
8.1534
6.19317
4.78664
4.78664
3.67293
2.78702
2.78702
2.07432
1.52433
1.52433
1.14423
0.956931
0.956931
)
;
    }
    top
    {
        type            zeroGradient;
    }
    left
    {
        type            cyclicAMI;
        value           nonuniform List<scalar> 
32
(
902.766
902.766
137.34
137.34
45.5275
45.5275
26.2553
26.2553
20.5805
20.5805
18.8253
18.2097
18.2097
17.1726
17.1726
14.5729
11.1199
11.1199
8.1534
8.1534
6.19317
4.78664
4.78664
3.67293
2.78702
2.78702
2.07432
1.52433
1.52433
1.14423
0.956931
0.956931
)
;
    }
    front
    {
        type            empty;
    }
}


// ************************************************************************* //
