/*--------------------------------*- C++ -*----------------------------------*\
  =========                 |
  \\      /  F ield         | OpenFOAM: The Open Source CFD Toolbox
   \\    /   O peration     | Website:  https://openfoam.org
    \\  /    A nd           | Version:  7
     \\/     M anipulation  |
\*---------------------------------------------------------------------------*/
FoamFile
{
    version     2.0;
    format      ascii;
    class       volScalarField;
    location    "0";
    object      p;
}
// * * * * * * * * * * * * * * * * * * * * * * * * * * * * * * * * * * * * * //

dimensions      [0 2 -2 0 0 0 0];

internalField   nonuniform List<scalar> 
1056
(
0.00118297
0.00118349
0.00118133
0.00118107
0.00116557
0.00116436
0.00113962
0.00113677
0.00110635
0.00110183
0.00107125
0.00104098
0.00103543
0.00100056
0.000990898
0.000941708
0.000877843
0.000856003
0.000769811
0.000740778
0.00064532
0.000542668
0.000511564
0.000411998
0.000320222
0.000293117
0.000210585
0.000146887
0.000127487
7.19272e-05
3.91273e-05
2.56575e-05
0.00115832
0.00115782
0.00116109
0.00116029
0.00114323
0.00114195
0.00111453
0.00111251
0.00107939
0.00107651
0.00104349
0.00101131
0.00100688
0.000968728
0.000961662
0.000908154
0.000839104
0.000822644
0.000735436
0.000713688
0.000614706
0.000515425
0.000488412
0.000391352
0.000303476
0.000278877
0.000200886
0.000139588
0.000121696
6.87816e-05
3.6652e-05
2.44148e-05
0.0010446
0.00104521
0.00103753
0.00103622
0.00101716
0.00101319
0.000982902
0.000975144
0.000939232
0.000928327
0.000896154
0.000862004
0.000854414
0.000812964
0.000800389
0.0007557
0.000693118
0.00067459
0.000593793
0.000567869
0.000493298
0.000406767
0.000384156
0.000307196
0.000237559
0.000219506
0.000157307
0.000109279
9.70387e-05
5.36924e-05
2.59858e-05
1.77889e-05
0.000682711
0.000680896
0.000665326
0.000663568
0.000643198
0.000640736
0.000611245
0.000607792
0.000573138
0.000568482
0.000535448
0.00050666
0.000500992
0.000474206
0.000466406
0.000435968
0.000396739
0.000386305
0.000340918
0.00032539
0.000278988
0.000231582
0.000217469
0.000176476
0.000136232
0.000127033
9.48632e-05
6.39066e-05
5.87607e-05
3.27548e-05
1.35588e-05
9.92968e-06
0.000613219
0.000612237
0.000613387
0.000611464
0.000589993
0.000586937
0.00055714
0.000552449
0.00051828
0.000512037
0.000479836
0.000451832
0.000444703
0.000419055
0.000409672
0.000381114
0.000346629
0.000332815
0.000292635
0.000275679
0.000235785
0.000195721
0.000181016
0.000147328
0.00011606
0.000105354
7.94651e-05
5.65028e-05
4.90406e-05
2.72173e-05
1.25195e-05
7.75421e-06
7.41546e-05
7.28729e-05
6.43953e-05
6.27798e-05
4.85516e-05
4.61322e-05
2.92417e-05
2.57187e-05
7.71407e-06
3.33273e-06
-1.13221e-05
-1.95273e-05
-2.30758e-05
-2.39233e-05
-2.61685e-05
-2.26912e-05
-1.80899e-05
-2.05251e-05
-1.67902e-05
-1.88865e-05
-1.67116e-05
-9.91982e-06
-1.13784e-05
-5.79896e-06
1.54785e-06
1.01219e-06
5.31677e-06
5.81485e-06
5.43779e-06
2.88231e-06
-7.38081e-07
-1.36689e-06
-5.47496e-05
-5.6983e-05
-3.32331e-05
-3.60304e-05
-4.67384e-05
-5.02042e-05
-6.2184e-05
-6.63751e-05
-7.97947e-05
-8.46476e-05
-9.38426e-05
-9.47157e-05
-0.000100547
-9.39523e-05
-9.92509e-05
-8.84504e-05
-7.38311e-05
-8.09914e-05
-6.79806e-05
-7.13853e-05
-6.10826e-05
-4.48117e-05
-4.83543e-05
-3.49886e-05
-1.79516e-05
-2.15389e-05
-1.08739e-05
-1.83102e-06
-5.11075e-06
-2.6986e-06
-1.88879e-06
-3.4862e-06
-0.000643621
-0.000644032
-0.000643487
-0.00064325
-0.000637904
-0.000635993
-0.000625672
-0.000622864
-0.000610014
-0.000605671
-0.000588422
-0.000562203
-0.000554944
-0.000517376
-0.000506787
-0.000462441
-0.000412405
-0.000398847
-0.000342824
-0.000329026
-0.000278733
-0.000225081
-0.000214025
-0.00016507
-0.000121863
-0.000113288
-7.59518e-05
-5.00232e-05
-4.46277e-05
-2.46657e-05
-1.44151e-05
-1.16614e-05
-0.00112846
-0.00113009
-0.00114388
-0.00114452
-0.00111767
-0.00111818
-0.00107864
-0.00107868
-0.0010342
-0.00103282
-0.000976105
-0.000911403
-0.000907407
-0.000833798
-0.000826197
-0.000743674
-0.000656585
-0.00064292
-0.000552708
-0.000536552
-0.00044773
-0.00036412
-0.000347365
-0.00027003
-0.000203723
-0.000189377
-0.000131767
-8.93764e-05
-7.87979e-05
-4.4171e-05
-2.47468e-05
-1.88934e-05
-0.00119983
-0.00120011
-0.00119556
-0.00119485
-0.00116733
-0.00116605
-0.00112589
-0.00112347
-0.00107819
-0.00107338
-0.00101611
-0.000951904
-0.00094317
-0.000870348
-0.000857061
-0.000775816
-0.00068894
-0.000670394
-0.000579991
-0.000558061
-0.000470555
-0.000384386
-0.000364995
-0.000286547
-0.000216513
-0.000201916
-0.000141721
-9.49202e-05
-8.54286e-05
-4.79259e-05
-2.55681e-05
-2.01793e-05
-0.0012971
-0.00129754
-0.00129048
-0.00128819
-0.00125448
-0.00124896
-0.00120504
-0.00119747
-0.00114842
-0.00113866
-0.00108876
-0.00103184
-0.00101794
-0.000951862
-0.000932743
-0.00085832
-0.000775756
-0.000752764
-0.000662111
-0.000635559
-0.000548113
-0.000455234
-0.000432609
-0.000346831
-0.000267616
-0.00024934
-0.000178404
-0.000122759
-0.000109523
-6.18327e-05
-3.3172e-05
-2.49035e-05
-0.00120828
-0.00121008
-0.00122339
-0.0012247
-0.00119164
-0.00119283
-0.00114743
-0.00114852
-0.00109526
-0.00109617
-0.00104608
-0.000988603
-0.000987484
-0.00092057
-0.000917028
-0.000840383
-0.000756009
-0.000747002
-0.000656263
-0.000643098
-0.000549862
-0.00045762
-0.000441111
-0.000353445
-0.000271661
-0.000256591
-0.000185076
-0.000124751
-0.000113909
-6.48811e-05
-3.30895e-05
-2.60943e-05
-0.000940376
-0.000940654
-0.000938558
-0.000938285
-0.000929106
-0.000926785
-0.000907269
-0.000901606
-0.000878403
-0.0008738
-0.000855383
-0.000837836
-0.000833687
-0.00080742
-0.00079993
-0.000763478
-0.000716052
-0.000701648
-0.000637022
-0.000618383
-0.000550315
-0.000471292
-0.000451777
-0.0003715
-0.000294951
-0.000276351
-0.00020153
-0.000141613
-0.000126963
-7.22294e-05
-3.8064e-05
-2.81114e-05
-0.000644036
-0.000645569
-0.000634498
-0.000636285
-0.00063729
-0.000639364
-0.000635033
-0.000637174
-0.000622985
-0.000624533
-0.000610498
-0.000602198
-0.00060553
-0.000602422
-0.000606447
-0.0005998
-0.000581444
-0.000580535
-0.000547174
-0.000541195
-0.000494786
-0.000436961
-0.000424924
-0.000359346
-0.000289356
-0.000275045
-0.000205495
-0.000144051
-0.000131101
-7.54758e-05
-3.87753e-05
-2.92645e-05
-0.00060756
-0.000607839
-0.000606788
-0.000607178
-0.000610215
-0.000610772
-0.000609936
-0.000610602
-0.000601376
-0.000601388
-0.000588899
-0.000578937
-0.000580053
-0.000577587
-0.000581182
-0.000578986
-0.000566422
-0.000565317
-0.000537036
-0.000531966
-0.00048878
-0.000435265
-0.000423273
-0.000358554
-0.000291904
-0.000276194
-0.000206341
-0.000146316
-0.000132017
-7.59803e-05
-3.93266e-05
-2.91284e-05
-0.000474412
-0.000474665
-0.000475052
-0.000475615
-0.000477505
-0.000478085
-0.000478606
-0.000478889
-0.000476917
-0.000476691
-0.00047168
-0.000465614
-0.000464186
-0.0004575
-0.000457924
-0.000454575
-0.00045415
-0.000455332
-0.000444786
-0.000442056
-0.00041852
-0.000381499
-0.000373209
-0.000324102
-0.000267806
-0.000255841
-0.000193724
-0.000138557
-0.000126247
-7.25359e-05
-3.73843e-05
-2.73842e-05
-0.000420318
-0.000420935
-0.000418434
-0.000419156
-0.000420257
-0.000421174
-0.000421079
-0.00042221
-0.000419731
-0.000421053
-0.000415593
-0.000407599
-0.000409045
-0.000398646
-0.000400237
-0.000392477
-0.000385491
-0.000388396
-0.000375833
-0.000377655
-0.000358237
-0.000326408
-0.000324731
-0.000282974
-0.000231522
-0.000226598
-0.000172566
-0.000120378
-0.000113468
-6.5265e-05
-3.17007e-05
-2.45924e-05
-0.000406424
-0.000406414
-0.00040695
-0.000407172
-0.000408671
-0.000408979
-0.000409802
-0.000409979
-0.000409085
-0.00040871
-0.000405196
-0.000399812
-0.000397702
-0.000390132
-0.000388242
-0.000381766
-0.000375238
-0.000372708
-0.000363006
-0.000361642
-0.000346317
-0.00031908
-0.000313401
-0.000274708
-0.000228811
-0.000219331
-0.000167223
-0.000120472
-0.000109762
-6.29854e-05
-3.22659e-05
-2.31349e-05
-0.000370326
-0.000370507
-0.000370796
-0.000371051
-0.000373243
-0.000373571
-0.000375312
-0.000375673
-0.00037551
-0.000375765
-0.000372243
-0.00036515
-0.000364177
-0.000353456
-0.000351981
-0.000339506
-0.000324263
-0.000322269
-0.000304981
-0.000302756
-0.000283227
-0.000257105
-0.000253796
-0.000219755
-0.000180393
-0.000175258
-0.000132676
-9.37222e-05
-8.75772e-05
-4.98973e-05
-2.41021e-05
-1.79003e-05
-0.000365813
-0.000365929
-0.000367433
-0.000367549
-0.000370132
-0.000370261
-0.000372581
-0.000372689
-0.000373407
-0.000373394
-0.000371127
-0.000364945
-0.000363965
-0.00035347
-0.000351711
-0.00033801
-0.000321283
-0.00031874
-0.000299278
-0.000296663
-0.000274536
-0.000248262
-0.000244399
-0.000209804
-0.000173145
-0.000166057
-0.000124981
-9.05306e-05
-8.19664e-05
-4.66576e-05
-2.36415e-05
-1.64133e-05
-0.000343606
-0.000343889
-0.000346271
-0.000347045
-0.000351496
-0.000352663
-0.000357585
-0.000358741
-0.000362816
-0.000363585
-0.000365386
-0.000364705
-0.000361702
-0.000351162
-0.000346946
-0.000327012
-0.000300756
-0.000292561
-0.000259397
-0.000251555
-0.000220441
-0.000188153
-0.000181918
-0.000148763
-0.000117195
-0.000111788
-8.16294e-05
-5.73358e-05
-5.27283e-05
-2.93029e-05
-1.34439e-05
-9.04809e-06
-0.00030004
-0.000300239
-0.000303669
-0.000303921
-0.000310731
-0.000311108
-0.000319387
-0.000319872
-0.000327739
-0.000328279
-0.000333901
-0.000333611
-0.00033395
-0.000322491
-0.000321274
-0.000294161
-0.000254485
-0.00024997
-0.000204472
-0.00019781
-0.000155242
-0.000114095
-0.000109723
-7.81232e-05
-4.94333e-05
-4.96694e-05
-3.28869e-05
-1.79968e-05
-1.98405e-05
-1.0079e-05
-1.33528e-06
-1.03495e-06
-0.000293334
-0.000293992
-0.000298605
-0.000299279
-0.00030524
-0.00030644
-0.000314082
-0.000315621
-0.000323059
-0.000324582
-0.000330257
-0.000330962
-0.000331628
-0.000322177
-0.000318154
-0.000292826
-0.000255354
-0.000243374
-0.000196507
-0.000183941
-0.000141444
-9.99081e-05
-9.0999e-05
-5.98505e-05
-3.67799e-05
-3.22653e-05
-1.94233e-05
-1.23026e-05
-1.0371e-05
-4.89655e-06
-4.5427e-07
1.29628e-06
-0.000169387
-0.00016948
-0.00017251
-0.000172642
-0.000178046
-0.000178436
-0.000186652
-0.000187347
-0.000196316
-0.000197111
-0.000203777
-0.000205358
-0.00020528
-0.000197058
-0.000194207
-0.000170346
-0.000133387
-0.000123691
-7.89672e-05
-6.73485e-05
-2.60151e-05
8.94961e-06
1.6324e-05
3.73042e-05
4.48031e-05
4.50523e-05
3.99022e-05
3.09303e-05
2.73103e-05
1.6632e-05
1.20458e-05
1.0121e-05
-0.000134466
-0.000134397
-0.00014634
-0.000146026
-0.000151714
-0.000151471
-0.000160191
-0.000159994
-0.000169361
-0.00016905
-0.000175658
-0.000176822
-0.000175398
-0.000166513
-0.00016282
-0.000138253
-0.000102277
-9.15033e-05
-4.87254e-05
-3.73651e-05
2.90937e-06
3.33762e-05
4.23096e-05
5.91141e-05
5.9859e-05
6.29437e-05
5.28699e-05
3.68597e-05
3.62671e-05
2.14594e-05
1.29425e-05
1.21619e-05
9.44687e-05
9.37572e-05
9.29096e-05
9.28076e-05
9.01707e-05
8.8712e-05
8.23592e-05
7.99498e-05
7.24997e-05
7.11962e-05
6.59009e-05
6.72422e-05
6.66343e-05
7.57367e-05
7.9462e-05
9.51243e-05
0.000118454
0.000126916
0.000152632
0.000160624
0.000176068
0.000181725
0.00018379
0.000174581
0.000150659
0.000145859
0.000112297
8.01322e-05
7.28533e-05
4.17136e-05
2.45564e-05
1.97784e-05
0.000423951
0.000425977
0.000438937
0.000440676
0.000433799
0.000435839
0.000422986
0.000425402
0.000411647
0.000414747
0.000405609
0.000402337
0.000406154
0.000405682
0.000411113
0.000409916
0.000409458
0.000411698
0.000399928
0.000404033
0.00037656
0.000343689
0.000339379
0.000289324
0.000239074
0.000227234
0.000167101
0.000118796
0.000105749
5.97027e-05
3.38001e-05
2.60337e-05
0.000497247
0.000497595
0.000493786
0.000494256
0.000489372
0.000489216
0.000479087
0.00047842
0.000467985
0.000467939
0.000462519
0.000461834
0.000464081
0.000465665
0.00046887
0.000468628
0.000464141
0.000465628
0.000449753
0.000447394
0.000418106
0.000376292
0.000368629
0.000314893
0.000255156
0.000243759
0.000179209
0.000124161
0.000112868
6.3357e-05
3.44759e-05
2.69619e-05
0.000862219
0.000864153
0.000869361
0.000870463
0.00086105
0.000861779
0.000844554
0.000844602
0.000825901
0.000825787
0.000812709
0.000803505
0.000805035
0.00079416
0.000794147
0.00077347
0.000740641
0.000733719
0.000680833
0.0006681
0.00060001
0.000519692
0.000501781
0.00041451
0.000328108
0.000308773
0.000223285
0.000154113
0.000137827
7.70236e-05
4.09346e-05
3.06901e-05
0.000911854
0.000912906
0.000904673
0.000905754
0.000894995
0.000896063
0.000876892
0.000877894
0.000858198
0.000859442
0.000846206
0.000836848
0.00083918
0.000826322
0.000827726
0.000803387
0.000763384
0.000760417
0.000701642
0.000691804
0.00061781
0.00053118
0.000516311
0.000425091
0.000332169
0.000316398
0.000228781
0.000154752
0.000141356
7.91197e-05
4.05275e-05
3.12476e-05
0.001166
0.00116757
0.00116367
0.00116443
0.0011512
0.00114946
0.001126
0.00112072
0.00109615
0.00109046
0.00107518
0.00105841
0.00105914
0.00103377
0.00102687
0.000994121
0.000935559
0.000921556
0.000836921
0.000811183
0.000724362
0.000612015
0.000586127
0.000478005
0.000372179
0.000348251
0.000248705
0.000171091
0.000152928
8.49769e-05
4.37084e-05
3.17164e-05
0.001225
0.0012255
0.00122563
0.0012259
0.00121069
0.00121079
0.00118539
0.00118517
0.00115634
0.00115583
0.00113098
0.00110873
0.00110786
0.0010791
0.00107598
0.00102967
0.000963189
0.000951707
0.000862498
0.000843565
0.000737486
0.000624746
0.000599247
0.000483997
0.000376367
0.00035128
0.00025197
0.000173125
0.000153822
8.66259e-05
4.59717e-05
3.25566e-05
0.00123888
0.00123888
0.00123526
0.00123467
0.00122
0.00121826
0.00119486
0.00119162
0.00116528
0.00116131
0.00113844
0.00111753
0.00111317
0.00108596
0.001077
0.00103297
0.000970088
0.000949552
0.000862962
0.000832981
0.000734318
0.000623559
0.0005921
0.000480077
0.000376336
0.000347802
0.000248972
0.000174351
0.000152751
8.59767e-05
4.73902e-05
3.23863e-05
)
;

boundaryField
{
    back
    {
        type            empty;
    }
    bottom
    {
        type            zeroGradient;
    }
    right
    {
        type            cyclicAMI;
        value           nonuniform List<scalar> 
32
(
0.00122207
0.00122207
0.0012171
0.0012171
0.00120195
0.00120195
0.00117329
0.00117329
0.00113963
0.00113963
0.00110982
0.00108424
0.00108424
0.00105131
0.00105131
0.00099795
0.000919193
0.000919193
0.000816145
0.000816145
0.000696914
0.000571338
0.000571338
0.000446296
0.000329371
0.000329371
0.000226569
0.000142639
0.000142639
7.54087e-05
2.36189e-05
2.36189e-05
)
;
    }
    top
    {
        type            fixedValue;
        value           uniform 0;
    }
    left
    {
        type            cyclicAMI;
        value           nonuniform List<scalar> 
32
(
0.00122207
0.00122207
0.0012171
0.0012171
0.00120195
0.00120195
0.00117329
0.00117329
0.00113963
0.00113963
0.00110982
0.00108424
0.00108424
0.00105131
0.00105131
0.00099795
0.000919193
0.000919193
0.000816145
0.000816145
0.000696914
0.000571338
0.000571338
0.000446296
0.000329371
0.000329371
0.000226569
0.000142639
0.000142639
7.54087e-05
2.36189e-05
2.36189e-05
)
;
    }
    front
    {
        type            empty;
    }
}


// ************************************************************************* //
