/*--------------------------------*- C++ -*----------------------------------*\
  =========                 |
  \\      /  F ield         | OpenFOAM: The Open Source CFD Toolbox
   \\    /   O peration     | Website:  https://openfoam.org
    \\  /    A nd           | Version:  7
     \\/     M anipulation  |
\*---------------------------------------------------------------------------*/
FoamFile
{
    version     2.0;
    format      ascii;
    class       volVectorField;
    location    "0";
    object      U;
}
// * * * * * * * * * * * * * * * * * * * * * * * * * * * * * * * * * * * * * //

dimensions      [0 1 -1 0 0 0 0];

internalField   nonuniform List<vector> 
1056
(
(0.0173738 0.00275597 2.04062e-25)
(0.0175424 0.00277602 2.10152e-25)
(0.0231251 0.0033677 5.08839e-26)
(0.0236931 0.00342574 4.35949e-26)
(0.0329992 0.00418875 -3.82345e-22)
(0.0334563 0.00419211 -3.71911e-22)
(0.0393272 0.00411936 9.38247e-24)
(0.0398401 0.00408268 9.22278e-24)
(0.0450401 0.00369433 1.82766e-22)
(0.0458237 0.00362054 1.82322e-22)
(0.0518893 0.00313837 0)
(0.0594599 0.00273869 0)
(0.0611927 0.00266578 0)
(0.0710319 0.00248799 1.53973e-22)
(0.0737817 0.00248147 1.56475e-22)
(0.08543 0.0025378 -4.92837e-22)
(0.0966404 0.00265092 -8.66722e-22)
(0.100111 0.00268421 -1.21462e-21)
(0.110276 0.00266418 -1.22013e-21)
(0.112973 0.00264529 -9.72531e-22)
(0.12151 0.00240637 -3.20836e-22)
(0.129286 0.00210801 -1.41931e-22)
(0.131536 0.00202093 -1.36134e-22)
(0.139064 0.00164128 1.3018e-22)
(0.145733 0.0013356 7.54578e-23)
(0.147734 0.00124154 3.17199e-23)
(0.154151 0.000905953 -4.69288e-24)
(0.158982 0.000679126 3.02573e-24)
(0.160479 0.000606199 2.69792e-24)
(0.164501 0.00039705 3.25597e-24)
(0.166353 0.000327478 7.98225e-25)
(0.167021 0.00030369 -5.0641e-25)
(0.0176601 0.0028894 1.82841e-25)
(0.0177048 0.00289717 1.83673e-25)
(0.02581 0.00389956 4.74041e-26)
(0.0260094 0.00392872 4.47376e-26)
(0.035202 0.00460404 -1.23929e-21)
(0.0353905 0.00462272 -1.27613e-21)
(0.0413508 0.00447005 3.01075e-23)
(0.0415744 0.00448091 3.12237e-23)
(0.0471044 0.00401218 5.74868e-22)
(0.0474318 0.0040159 6.0118e-22)
(0.0540246 0.00346139 0)
(0.0624038 0.00301702 0)
(0.0632607 0.00302114 0)
(0.0740095 0.00281664 4.31995e-22)
(0.0753937 0.00285042 4.59698e-22)
(0.0877082 0.00287613 -8.49968e-22)
(0.0995919 0.00292791 -8.64537e-22)
(0.101499 0.00298225 -9.47318e-22)
(0.111812 0.00288135 -9.44616e-22)
(0.113661 0.00288366 -7.48454e-22)
(0.122378 0.00260276 -3.43377e-22)
(0.130319 0.00221022 -1.66685e-22)
(0.132079 0.00216931 -1.46451e-22)
(0.139531 0.00176291 1.33219e-22)
(0.146435 0.00137085 6.03228e-23)
(0.148035 0.00132352 3.17917e-23)
(0.154328 0.000966781 -1.18646e-23)
(0.159351 0.000686267 4.18652e-24)
(0.160579 0.000644808 4.90567e-24)
(0.164551 0.000421495 4.9625e-24)
(0.166457 0.000332011 9.69279e-25)
(0.167034 0.00032349 3.87921e-25)
(0.0197833 0.00374964 2.6771e-22)
(0.0204463 0.00386694 2.16606e-22)
(0.0304978 0.0055209 -8.82433e-22)
(0.0341426 0.00614462 -1.0331e-21)
(0.0421407 0.00693903 -3.40658e-21)
(0.0438858 0.00705641 -4.50605e-21)
(0.048796 0.00696102 -1.34337e-21)
(0.0499022 0.00689951 -2.21963e-22)
(0.0545551 0.00646827 1.93993e-21)
(0.0558145 0.00634029 1.57673e-21)
(0.0611264 0.00579501 3.04968e-22)
(0.0673086 0.00536354 2.51674e-22)
(0.0696247 0.00519923 2.05158e-22)
(0.0789221 0.00487689 9.81913e-22)
(0.081547 0.00482907 7.81325e-22)
(0.092583 0.00470343 -1.36333e-21)
(0.101994 0.00455451 -8.94897e-22)
(0.105328 0.0045401 -3.22951e-22)
(0.114815 0.00420724 -1.22623e-22)
(0.116914 0.00408908 -1.66273e-22)
(0.124719 0.003631 -6.36783e-24)
(0.131994 0.00302176 -2.04954e-22)
(0.133763 0.00289043 -1.74714e-22)
(0.141036 0.00231498 2.90663e-22)
(0.147306 0.00179548 8.54271e-23)
(0.148863 0.00168522 3.03971e-23)
(0.155103 0.00121587 -2.97852e-23)
(0.159764 0.000873682 -3.1491e-24)
(0.160909 0.000798279 7.2495e-24)
(0.164814 0.000522272 9.06248e-24)
(0.166649 0.000412993 4.43239e-24)
(0.167144 0.000387357 2.37616e-24)
(0.0299552 0.00587228 4.6864e-21)
(0.030132 0.00590878 4.70277e-21)
(0.0416815 0.00785802 2.70942e-21)
(0.0418906 0.00789467 2.62801e-21)
(0.0536343 0.00938015 -1.5207e-21)
(0.0538196 0.0093991 -1.46897e-21)
(0.0600787 0.00931237 -3.88551e-22)
(0.0602931 0.00932048 -3.3643e-22)
(0.0653949 0.0087667 1.13731e-21)
(0.065705 0.00876025 1.06899e-21)
(0.0713798 0.00803204 5.34667e-24)
(0.0783921 0.00730763 1.86788e-22)
(0.0790154 0.00728969 2.16843e-22)
(0.0877877 0.00670242 6.65869e-22)
(0.0888669 0.00667853 6.55484e-22)
(0.0988598 0.00624665 -2.48403e-22)
(0.108766 0.00583535 -3.02313e-22)
(0.110172 0.00578524 -3.51462e-22)
(0.118792 0.00522549 -2.81606e-22)
(0.1203 0.00512269 -1.96351e-22)
(0.127688 0.00439609 5.42288e-24)
(0.134555 0.00363099 -3.21674e-23)
(0.13599 0.00348103 -6.25054e-23)
(0.142576 0.00274253 1.02952e-22)
(0.148739 0.00210749 4.25967e-23)
(0.15005 0.00197522 1.84618e-23)
(0.155739 0.00142288 -1.7465e-23)
(0.160367 0.00101899 2.01583e-24)
(0.161341 0.000927489 7.97287e-24)
(0.16497 0.000618708 5.96316e-24)
(0.166772 0.000489095 8.08947e-25)
(0.167182 0.000453168 1.00316e-24)
(0.032766 0.00643377 5.40071e-21)
(0.0330195 0.00648421 5.24903e-21)
(0.043397 0.00818958 2.59346e-21)
(0.0440106 0.00828721 2.29152e-21)
(0.0553328 0.00969457 -8.71482e-22)
(0.0557564 0.00970955 -7.83267e-22)
(0.0618003 0.00960575 -2.73884e-22)
(0.0622205 0.00957611 -1.77239e-22)
(0.0671796 0.0090336 7.8697e-22)
(0.0677574 0.00896531 6.9422e-22)
(0.0733086 0.00826587 6.93458e-24)
(0.079929 0.00758472 1.9845e-22)
(0.08119 0.00748992 2.70792e-22)
(0.0894419 0.00693356 5.25419e-22)
(0.0913128 0.0068505 4.82258e-22)
(0.100622 0.00642911 -1.05799e-22)
(0.109781 0.00600652 -3.74098e-22)
(0.111822 0.00590751 -4.20027e-22)
(0.119918 0.00533815 -3.07842e-22)
(0.121803 0.00516242 -1.55151e-22)
(0.12865 0.00446444 6.59686e-23)
(0.135276 0.00368561 -1.95068e-23)
(0.136843 0.0035056 -2.9423e-23)
(0.143162 0.00278307 8.8658e-23)
(0.149118 0.00213296 3.94656e-23)
(0.150468 0.00199756 1.62135e-23)
(0.156044 0.00144488 -1.47321e-23)
(0.160483 0.00103044 1.5851e-24)
(0.161485 0.000943357 7.32223e-24)
(0.165063 0.00063261 3.82148e-24)
(0.166778 0.000495309 6.12014e-25)
(0.167208 0.000465288 5.67364e-25)
(0.0404515 0.00730869 1.25926e-21)
(0.0409611 0.00740638 1.18153e-21)
(0.0512189 0.0090123 -5.61283e-26)
(0.0523693 0.00920165 -7.10657e-26)
(0.0663346 0.0110465 -2.52331e-22)
(0.0668885 0.0110534 -2.41231e-22)
(0.072438 0.0108173 1.61734e-22)
(0.0729802 0.0107565 1.55095e-22)
(0.0774208 0.010124 1.4967e-23)
(0.078151 0.0100128 1.94737e-23)
(0.0830009 0.00925425 -5.32254e-24)
(0.0886608 0.0084848 -2.88371e-23)
(0.0899989 0.00833125 -4.10232e-23)
(0.0969681 0.00763483 1.20871e-22)
(0.0988132 0.00748261 1.38436e-22)
(0.106863 0.006891 -9.20733e-24)
(0.114559 0.00633572 -1.07953e-22)
(0.116802 0.00617271 -9.74928e-23)
(0.123915 0.00550103 -5.96756e-23)
(0.125619 0.00530297 -4.65758e-23)
(0.131863 0.00454839 5.77177e-23)
(0.137679 0.0037603 -4.29651e-23)
(0.13915 0.0035646 -4.74147e-23)
(0.145024 0.00282154 1.12545e-23)
(0.150344 0.00218181 1.66706e-24)
(0.151665 0.00203152 1.61017e-24)
(0.156883 0.00147493 -1.26229e-25)
(0.160959 0.00106647 2.85001e-24)
(0.16194 0.000971328 2.40873e-24)
(0.165292 0.000662518 3.46008e-25)
(0.166877 0.000521598 2.58795e-26)
(0.167282 0.000485957 3.99186e-26)
(0.0395297 0.00688831 1.30302e-21)
(0.0395687 0.00689159 1.30014e-21)
(0.0552233 0.00932119 -4.59042e-26)
(0.0554495 0.0093479 -4.70859e-26)
(0.0688841 0.010966 -2.80028e-22)
(0.0690344 0.0109628 -2.80543e-22)
(0.0747196 0.0106129 1.75822e-22)
(0.074887 0.0105951 1.76241e-22)
(0.0795955 0.00990754 1.75226e-23)
(0.079818 0.00987799 1.8501e-23)
(0.0850605 0.00904581 -1.90174e-23)
(0.091318 0.00820961 -1.01537e-22)
(0.0918288 0.00815584 -1.03677e-22)
(0.0994459 0.00740583 1.87994e-22)
(0.1002 0.00734299 1.93557e-22)
(0.108721 0.00670567 -6.03861e-24)
(0.116907 0.00610576 -4.44081e-23)
(0.117993 0.00601092 -3.4522e-23)
(0.125226 0.00532482 -1.28076e-24)
(0.126299 0.00519794 9.53822e-24)
(0.132667 0.00441526 6.98775e-23)
(0.138594 0.00363097 -5.34926e-23)
(0.139722 0.00347763 -5.77275e-23)
(0.14548 0.00274848 -3.27996e-24)
(0.150924 0.00211248 3.54405e-24)
(0.152005 0.00198518 4.14981e-24)
(0.157061 0.00144964 5.70939e-24)
(0.161218 0.00104229 1.2315e-24)
(0.162059 0.000958489 5.97936e-25)
(0.165323 0.000660428 8.27708e-25)
(0.16692 0.000517663 2.00865e-26)
(0.167281 0.000484256 2.75148e-26)
(0.0427635 0.00589573 -3.45203e-26)
(0.0461197 0.00636672 1.05106e-26)
(0.0593693 0.00815383 6.7117e-23)
(0.0637226 0.00872169 6.96272e-23)
(0.0771715 0.0101002 -1.61424e-24)
(0.0789087 0.0101665 -1.69976e-24)
(0.084292 0.0100427 -1.14366e-24)
(0.0852145 0.00989646 -1.27451e-24)
(0.0888099 0.00932764 -4.88909e-23)
(0.0897639 0.00911285 -6.11565e-23)
(0.0935105 0.00846441 -5.79772e-23)
(0.0978911 0.00772546 -1.81531e-22)
(0.0994085 0.00750786 -2.86255e-22)
(0.105392 0.00677869 1.63634e-22)
(0.107103 0.00659132 1.93223e-22)
(0.114018 0.00602576 9.29019e-23)
(0.120182 0.00548764 1.52818e-22)
(0.122233 0.00534781 2.33678e-22)
(0.128487 0.00474137 2.33262e-22)
(0.129882 0.00453343 1.9636e-22)
(0.135258 0.00394635 1.34894e-22)
(0.140439 0.00324084 -3.66787e-23)
(0.141701 0.00306905 -5.81537e-23)
(0.147065 0.00245438 -5.87806e-23)
(0.151811 0.00191132 -7.6008e-24)
(0.152991 0.00178306 5.29917e-24)
(0.157846 0.00131349 2.16203e-23)
(0.161534 0.000969358 6.65776e-24)
(0.162444 0.000887363 3.24434e-25)
(0.165563 0.000621659 1.68389e-24)
(0.166989 0.000492265 8.99687e-25)
(0.167368 0.000458071 2.50654e-25)
(0.0427683 0.00345596 9.71621e-22)
(0.0429909 0.00347469 9.8675e-22)
(0.0618309 0.00454023 7.32963e-22)
(0.0622207 0.00455675 7.34482e-22)
(0.0818541 0.0059092 1.01784e-21)
(0.0820791 0.00589319 9.87587e-22)
(0.0896951 0.00552096 -8.49033e-22)
(0.0898799 0.00551371 -8.72758e-22)
(0.0945986 0.00544123 -2.37933e-22)
(0.0948344 0.00540906 -2.21955e-22)
(0.0993046 0.00498015 -1.92825e-22)
(0.104205 0.00457181 9.5298e-23)
(0.104646 0.0045328 7.21565e-23)
(0.110316 0.00415236 8.90351e-23)
(0.110992 0.00410212 8.69487e-23)
(0.117296 0.00378608 1.18415e-24)
(0.123628 0.00350605 7.93821e-23)
(0.124583 0.00345828 7.78909e-23)
(0.130468 0.00316565 7.10539e-23)
(0.13152 0.00309358 6.98854e-23)
(0.136842 0.00274568 2.98657e-23)
(0.141916 0.00234296 -2.87709e-23)
(0.14295 0.0022552 -2.83854e-23)
(0.147924 0.00185408 -7.47395e-24)
(0.152692 0.00147062 -4.01059e-24)
(0.153687 0.00139632 -3.09243e-24)
(0.158204 0.00106212 7.55763e-24)
(0.161936 0.000788007 -1.0353e-24)
(0.162714 0.000738356 -1.06127e-24)
(0.16566 0.000535072 2.60682e-24)
(0.167085 0.000418568 1.36711e-24)
(0.167405 0.000397509 4.41284e-25)
(0.0431925 0.00314857 1.06615e-21)
(0.0435531 0.00318921 1.08978e-21)
(0.0614689 0.00393642 7.96106e-22)
(0.0622146 0.00397854 7.92478e-22)
(0.0822782 0.00528151 1.18302e-21)
(0.0826851 0.00527042 1.12849e-21)
(0.090263 0.00493134 -1.07362e-21)
(0.0905672 0.00493519 -1.12039e-21)
(0.095241 0.00490948 -2.47136e-22)
(0.0956047 0.00487366 -2.06629e-22)
(0.0999791 0.00449246 -1.46365e-22)
(0.104689 0.00413696 1.59157e-22)
(0.105341 0.00409153 1.18088e-22)
(0.110769 0.00376088 3.91555e-23)
(0.111706 0.0037047 3.98235e-23)
(0.117741 0.0034307 1.71857e-24)
(0.123797 0.00320042 6.36819e-23)
(0.125023 0.00314305 6.33536e-23)
(0.130745 0.00289794 5.73444e-23)
(0.131973 0.00282884 5.92952e-23)
(0.137136 0.00252703 1.35214e-23)
(0.142111 0.00217581 -1.47939e-23)
(0.143226 0.00208638 -1.56962e-23)
(0.148123 0.00172547 3.51676e-24)
(0.15279 0.00138584 -9.55378e-24)
(0.153831 0.0013056 -8.80428e-24)
(0.15832 0.000998179 3.95577e-24)
(0.161961 0.000756946 -7.83122e-25)
(0.162774 0.000698111 -7.21153e-25)
(0.165701 0.000509802 2.48859e-24)
(0.167086 0.000407508 1.38261e-24)
(0.167423 0.000376074 4.24517e-25)
(0.034399 -0.00115256 -1.23729e-21)
(0.0356617 -0.00116496 -1.20131e-21)
(0.0535427 -0.000646082 1.24996e-21)
(0.0563815 -0.000584563 1.42527e-21)
(0.0793726 -0.000363376 -5.93261e-22)
(0.081005 -0.000291378 -9.52485e-22)
(0.0920414 0.000207566 -2.11362e-22)
(0.0926295 0.000249731 -3.19065e-22)
(0.0966917 0.000422921 -1.27788e-21)
(0.0972992 0.000473277 -8.37398e-22)
(0.100947 0.000665801 4.04848e-22)
(0.104951 0.000687712 3.44092e-22)
(0.105978 0.000689516 2.58492e-22)
(0.110985 0.000720889 -9.50639e-23)
(0.112401 0.000758584 -9.87886e-23)
(0.118187 0.000864722 -2.72659e-23)
(0.123967 0.00102626 2.31827e-22)
(0.125542 0.00108327 2.72264e-22)
(0.131195 0.00120499 1.88375e-22)
(0.13253 0.0012288 1.374e-22)
(0.137564 0.00123529 3.4331e-23)
(0.142466 0.00116263 5.69595e-24)
(0.143622 0.00114439 1.38513e-23)
(0.14852 0.00100439 6.08177e-23)
(0.153029 0.00085613 -4.34895e-23)
(0.154093 0.000824875 -5.58094e-23)
(0.15858 0.000657345 -3.98683e-24)
(0.16208 0.000519014 8.9919e-24)
(0.162904 0.00049094 7.09429e-24)
(0.1658 0.000374898 -2.92786e-24)
(0.16713 0.000298217 0)
(0.16747 0.000280033 0)
(0.0267286 -0.00090636 -6.22199e-21)
(0.0269851 -0.000911206 -6.11854e-21)
(0.0475413 -0.000591471 1.15489e-21)
(0.0479617 -0.000584179 1.17533e-21)
(0.0731641 -0.000798293 -3.03593e-21)
(0.0735287 -0.000775825 -3.00885e-21)
(0.0894384 -0.000521114 2.35328e-21)
(0.0896129 -0.000485915 2.24683e-21)
(0.0955704 -0.000272445 -1.24347e-21)
(0.0957191 -0.000228252 -1.16907e-21)
(0.100308 0.000209302 -2.46469e-22)
(0.10501 0.000330781 6.51495e-22)
(0.105269 0.000350832 6.17397e-22)
(0.110652 0.000383557 -3.99593e-22)
(0.111123 0.000420614 -3.77022e-22)
(0.117375 0.000508034 -2.61162e-22)
(0.123977 0.000678072 4.10769e-22)
(0.124644 0.000721417 4.13768e-22)
(0.130843 0.000878457 1.36166e-22)
(0.131648 0.000935976 1.21256e-22)
(0.137206 0.000976779 4.81781e-23)
(0.142424 0.000953588 9.64766e-24)
(0.143285 0.00096267 1.47289e-23)
(0.148305 0.000846453 9.62655e-23)
(0.153103 0.000743223 -8.8996e-23)
(0.153974 0.000718196 -9.7805e-23)
(0.158446 0.000572465 -1.71163e-24)
(0.162159 0.000473624 1.64652e-23)
(0.162872 0.000437264 1.80828e-23)
(0.165756 0.000336653 -8.15885e-24)
(0.167154 0.000281346 0)
(0.167457 0.000249191 0)
(0.00617051 -0.00097045 -1.39324e-20)
(0.00673189 -0.00102524 -1.31692e-20)
(0.0166069 -0.00156166 -1.05206e-20)
(0.0196348 -0.00177497 -9.17107e-21)
(0.0399524 -0.00282536 -2.34448e-21)
(0.0452672 -0.00311634 -2.25605e-21)
(0.0664759 -0.00389274 3.03436e-22)
(0.0716225 -0.00399353 2.40733e-21)
(0.0862468 -0.00379929 3.36013e-21)
(0.0883887 -0.00353336 1.73288e-21)
(0.0959207 -0.00269229 -1.48905e-21)
(0.100843 -0.00200157 -7.84993e-22)
(0.10235 -0.00182462 2.71951e-22)
(0.107022 -0.00152229 -5.51718e-22)
(0.108333 -0.00147589 -1.03176e-21)
(0.113926 -0.00130827 -8.57936e-22)
(0.119733 -0.00105448 -5.69123e-23)
(0.121929 -0.000970234 5.68416e-22)
(0.128552 -0.000600031 2.74124e-22)
(0.130124 -0.000480299 1.91329e-22)
(0.136114 -0.000179906 -3.30926e-23)
(0.141337 2.36821e-05 8.85094e-23)
(0.142627 7.96215e-05 1.14781e-22)
(0.147944 0.000188154 2.20046e-22)
(0.152522 0.000218905 -8.18823e-23)
(0.153683 0.000238488 -1.63457e-22)
(0.15837 0.00023785 -1.39104e-24)
(0.161929 0.000212483 9.05e-24)
(0.162806 0.000212022 1.93584e-23)
(0.165778 0.000185997 -6.34905e-24)
(0.167133 0.00015034 -7.93834e-24)
(0.167489 0.000137983 -2.186e-24)
(-0.00673745 0.00221474 -1.21927e-20)
(-0.00671583 0.0022092 -1.20723e-20)
(-0.00437997 0.00263645 -7.17322e-21)
(-0.00422497 0.00262338 -6.90678e-21)
(0.0054055 0.0023441 -1.53444e-21)
(0.00604758 0.00226654 -1.61327e-21)
(0.0262993 0.000480113 3.58552e-21)
(0.0277554 0.000327378 3.82338e-21)
(0.0511109 -0.00159585 8.03953e-22)
(0.0530352 -0.00174463 5.51555e-22)
(0.0741636 -0.00275739 -9.35033e-23)
(0.089616 -0.00282348 -1.39383e-21)
(0.0909728 -0.00272337 -1.33014e-21)
(0.100835 -0.00226833 -6.67385e-22)
(0.101929 -0.00218321 -3.93821e-22)
(0.109295 -0.00184327 -3.73457e-22)
(0.116113 -0.00166318 9.36514e-22)
(0.117501 -0.00162801 7.62296e-22)
(0.124539 -0.00141307 5.19515e-24)
(0.126235 -0.00132746 -6.96408e-23)
(0.132988 -0.00103258 -2.12631e-22)
(0.139359 -0.000747541 1.29447e-22)
(0.140761 -0.000657209 1.73458e-22)
(0.146452 -0.000444225 1.79054e-22)
(0.15176 -0.000289106 -7.39729e-23)
(0.152888 -0.000229289 -1.07374e-22)
(0.15775 -0.000124617 1.41893e-23)
(0.161716 -6.10276e-05 1.53239e-23)
(0.162545 -2.76572e-05 -3.19657e-24)
(0.165642 1.60665e-05 -1.37627e-23)
(0.167119 7.94292e-06 1.09858e-24)
(0.167461 1.62797e-05 3.4945e-25)
(-0.00697298 0.00231264 -9.65905e-21)
(-0.00704072 0.00233904 -9.85486e-21)
(-0.00610269 0.00289649 -8.63625e-21)
(-0.00610653 0.00291735 -8.43292e-21)
(0.00052926 0.00301232 -7.9963e-22)
(0.000878765 0.00297636 -7.77423e-22)
(0.0178746 0.0014071 2.41878e-21)
(0.0190642 0.00127284 2.5474e-21)
(0.0418201 -0.000810001 1.12458e-21)
(0.0441329 -0.00102777 1.09577e-21)
(0.0669424 -0.00251925 6.73606e-22)
(0.0850735 -0.00293825 -1.50635e-21)
(0.0866982 -0.00288843 -1.40106e-21)
(0.0981702 -0.00245065 -6.20782e-22)
(0.0995605 -0.00233745 -6.24733e-22)
(0.10742 -0.00192728 -7.45464e-22)
(0.114308 -0.00173974 1.20212e-21)
(0.115765 -0.00171786 8.65231e-22)
(0.122849 -0.00154729 1.1586e-22)
(0.124634 -0.00147334 4.18559e-23)
(0.131777 -0.00119102 -3.21048e-22)
(0.138303 -0.000897646 8.78045e-23)
(0.139872 -0.000802862 2.11739e-22)
(0.145863 -0.000566115 1.4556e-22)
(0.151197 -0.000387903 -2.28946e-23)
(0.152484 -0.000329377 -8.87062e-23)
(0.157497 -0.000201281 7.82486e-24)
(0.161506 -0.000106117 1.56702e-23)
(0.162428 -8.3167e-05 -1.5373e-23)
(0.165586 -2.29742e-05 -1.16991e-23)
(0.167095 -8.95314e-06 1.14555e-24)
(0.167459 -1.66029e-05 3.4461e-25)
(-0.00719632 0.00264888 9.1873e-21)
(-0.00755343 0.00279281 7.95022e-21)
(-0.00978172 0.00376802 7.08757e-21)
(-0.0102751 0.00397932 6.07845e-21)
(-0.0114302 0.00486753 -1.85859e-21)
(-0.0112124 0.00489841 -1.89706e-21)
(-0.00647936 0.00451714 -1.14866e-24)
(-0.00448558 0.00425637 -1.72595e-24)
(0.00780834 0.00280674 1.61032e-21)
(0.0126484 0.00225862 1.72087e-21)
(0.0316607 0.000426002 -6.24784e-23)
(0.054183 -0.00117089 1.60775e-21)
(0.0605515 -0.00153445 1.71007e-21)
(0.0811352 -0.00225808 2.3713e-22)
(0.0853814 -0.00224572 -6.78756e-22)
(0.0990822 -0.00224491 -1.97698e-21)
(0.108269 -0.00208108 -2.8913e-22)
(0.110532 -0.00203638 5.48625e-22)
(0.118615 -0.00194478 9.46338e-22)
(0.120825 -0.0018913 4.46907e-22)
(0.128223 -0.00173411 -4.92968e-22)
(0.135678 -0.00144677 -3.30825e-23)
(0.137417 -0.00135536 1.84891e-23)
(0.144154 -0.00107819 -1.49513e-22)
(0.149955 -0.000822382 -1.06132e-22)
(0.151327 -0.00074749 -7.15387e-23)
(0.156847 -0.000529059 1.05227e-23)
(0.161042 -0.000365447 -1.48477e-23)
(0.162036 -0.000316643 -1.62321e-23)
(0.165453 -0.000186128 1.72586e-25)
(0.167026 -0.000148027 0)
(0.167436 -0.000136655 0)
(-0.00578351 0.00218997 1.58695e-20)
(-0.00577369 0.0021848 1.59876e-20)
(-0.00960421 0.00372275 -7.16737e-21)
(-0.00965414 0.00374136 -7.28853e-21)
(-0.0126169 0.0050475 -2.80547e-21)
(-0.0126506 0.00506128 -2.75252e-21)
(-0.0116975 0.00517715 -4.43596e-21)
(-0.0116312 0.00516985 -3.77056e-21)
(-0.00514985 0.00426131 2.93249e-21)
(-0.00475978 0.00421028 2.51936e-21)
(0.00918292 0.00256447 2.72805e-21)
(0.0305934 0.000710901 -1.57708e-21)
(0.0328992 0.000520225 -1.01119e-21)
(0.0581068 -0.000930697 3.77197e-22)
(0.0611114 -0.00108869 2.36407e-22)
(0.0835884 -0.00179211 -3.23478e-22)
(0.100119 -0.00206189 5.21638e-22)
(0.102218 -0.00206909 7.0876e-22)
(0.113497 -0.00211839 8.89322e-22)
(0.115123 -0.00210844 8.02767e-22)
(0.124475 -0.0020063 -8.41038e-23)
(0.132821 -0.00180771 3.40058e-23)
(0.134474 -0.00173544 5.86749e-23)
(0.142012 -0.00144921 -6.61334e-23)
(0.148673 -0.00117265 -7.43733e-25)
(0.149997 -0.00107898 -9.85266e-25)
(0.155888 -0.000801132 0)
(0.160636 -0.000587634 1.34387e-24)
(0.161572 -0.000513918 5.72074e-25)
(0.165201 -0.000331486 -1.72486e-24)
(0.166973 -0.000272441 0)
(0.167367 -0.000240019 0)
(-0.00574979 0.00220915 1.15921e-20)
(-0.00582689 0.00224254 1.18772e-20)
(-0.00802209 0.00312295 -1.07276e-21)
(-0.00859508 0.00335875 -1.27408e-21)
(-0.0118339 0.0047259 -2.58721e-21)
(-0.0122128 0.00488866 -9.5091e-21)
(-0.0125714 0.00527117 -1.63232e-20)
(-0.0123748 0.00525366 -7.65186e-21)
(-0.00900856 0.00476848 8.52831e-21)
(-0.007851 0.00458473 9.92671e-21)
(0.00119696 0.00342864 2.79639e-21)
(0.0157696 0.00197661 -6.09268e-21)
(0.0223325 0.00133481 -2.4392e-21)
(0.0452073 -0.00023953 1.00764e-21)
(0.0532534 -0.000712163 1.27913e-21)
(0.0776643 -0.00168084 -1.57606e-22)
(0.0941397 -0.0020398 -1.34822e-22)
(0.0996916 -0.00210247 8.02291e-22)
(0.111 -0.0021515 9.58692e-22)
(0.113573 -0.00214446 7.95991e-22)
(0.122859 -0.00209578 9.07729e-23)
(0.13112 -0.00191635 -3.57716e-23)
(0.133266 -0.00184794 -2.28304e-23)
(0.141248 -0.00156327 -2.29245e-24)
(0.147739 -0.00127119 -3.66397e-25)
(0.149399 -0.00118195 -3.77921e-25)
(0.155608 -0.000876965 0)
(0.160248 -0.000637815 2.6184e-24)
(0.161391 -0.000573376 2.05589e-24)
(0.165156 -0.000368199 -2.35209e-24)
(0.166913 -0.000287932 0)
(0.167375 -0.000270616 0)
(-0.00676509 0.00233403 -8.96865e-21)
(-0.00680264 0.00234754 -9.08201e-21)
(-0.0103533 0.00370025 8.07302e-21)
(-0.0104872 0.00375388 8.81483e-21)
(-0.0137901 0.00516543 -4.21205e-21)
(-0.0138424 0.00519806 -4.69734e-21)
(-0.0138391 0.00554084 2.84597e-21)
(-0.0137531 0.00552749 1.84375e-21)
(-0.0112006 0.00508502 -2.14028e-21)
(-0.0109208 0.00502514 -1.24407e-21)
(-0.00522135 0.00408041 -3.798e-21)
(0.00596386 0.00269168 -6.70716e-23)
(0.00810458 0.00245652 -6.21097e-23)
(0.0282556 0.000789503 1.63831e-21)
(0.0331198 0.000465969 1.88435e-21)
(0.0590353 -0.000940535 3.7449e-22)
(0.0829477 -0.00181999 7.18965e-22)
(0.0875816 -0.00194099 5.17324e-22)
(0.104219 -0.00226902 2.72243e-22)
(0.107412 -0.00228991 3.5242e-22)
(0.118672 -0.00232953 4.68862e-23)
(0.128351 -0.00221219 -1.08524e-22)
(0.130482 -0.00215169 -8.01765e-23)
(0.138891 -0.00189444 1.97234e-23)
(0.146368 -0.0015634 4.80073e-23)
(0.147977 -0.00147008 2.39706e-23)
(0.154567 -0.00112206 -7.5997e-25)
(0.159744 -0.000822625 6.23684e-24)
(0.160864 -0.00074551 6.91148e-24)
(0.164891 -0.000493299 -4.2716e-24)
(0.166826 -0.000388497 -3.93422e-24)
(0.167299 -0.000357475 -1.17939e-24)
(-0.00653499 0.00219552 -8.78557e-21)
(-0.0065841 0.00221692 -8.88311e-21)
(-0.0102015 0.00349012 5.82882e-21)
(-0.0102616 0.00352563 5.95951e-21)
(-0.0140064 0.00506575 -2.86361e-21)
(-0.0140096 0.0050901 -2.44523e-21)
(-0.0143052 0.00555826 5.55603e-21)
(-0.0142223 0.00555518 4.58054e-21)
(-0.0119221 0.00519363 -4.13416e-21)
(-0.0116974 0.00515258 -3.91093e-21)
(-0.00670181 0.00429334 -3.72702e-21)
(0.00316564 0.00298375 -3.55645e-22)
(0.00439001 0.00283899 -3.00389e-22)
(0.0224374 0.00117989 1.91779e-21)
(0.0261012 0.000906763 1.9444e-21)
(0.052107 -0.000656979 1.29827e-22)
(0.0781852 -0.00171335 6.94845e-22)
(0.0829815 -0.00185584 4.0623e-22)
(0.10142 -0.00227365 2.44193e-22)
(0.104724 -0.0023049 2.71714e-22)
(0.117103 -0.00237564 5.9538e-23)
(0.127036 -0.00227665 -4.42443e-23)
(0.129269 -0.00222586 -1.1428e-22)
(0.138099 -0.00196651 -3.25132e-24)
(0.145684 -0.00163075 5.66687e-23)
(0.147424 -0.00154077 2.51229e-23)
(0.154213 -0.00117512 -2.99983e-24)
(0.159505 -0.000856131 6.9978e-24)
(0.16069 -0.000784661 8.91053e-24)
(0.1648 -0.000520029 -3.61124e-24)
(0.166801 -0.000398643 -4.04016e-24)
(0.167282 -0.000376947 -1.19244e-24)
(-0.00847421 0.00203535 -2.08554e-21)
(-0.0090225 0.00216972 -1.04103e-21)
(-0.0124872 0.00312379 2.67417e-22)
(-0.0136006 0.00344061 1.19465e-21)
(-0.0172808 0.00467497 4.70155e-21)
(-0.0176065 0.00486737 3.70373e-21)
(-0.0174571 0.00527958 -5.40125e-22)
(-0.0170304 0.00527469 -5.65856e-22)
(-0.0144792 0.00504076 -3.81915e-22)
(-0.0135526 0.00490501 -4.31963e-22)
(-0.00948947 0.0043086 -5.36452e-22)
(-0.00781766 0.00402238 -1.24337e-21)
(-0.00151658 0.00308772 -6.28972e-22)
(0.0109522 0.00162299 2.13491e-21)
(0.0156933 0.00118548 1.99877e-21)
(0.0385199 -0.000414461 -1.28548e-21)
(0.0638891 -0.0015454 -1.91979e-21)
(0.072229 -0.00186094 -1.44798e-21)
(0.094349 -0.00244118 -4.95024e-23)
(0.0986493 -0.00251061 -3.18938e-23)
(0.113076 -0.00264674 7.38979e-23)
(0.124182 -0.00255678 -5.86394e-23)
(0.126658 -0.00250999 -7.02713e-23)
(0.136287 -0.00224123 1.30289e-23)
(0.144217 -0.00186727 -3.17235e-24)
(0.146081 -0.00176985 -3.8543e-24)
(0.153446 -0.00134691 -1.14773e-23)
(0.158896 -0.000995107 2.41659e-24)
(0.160195 -0.000909488 8.78213e-24)
(0.164608 -0.000603264 -5.23687e-25)
(0.166681 -0.0004683 0)
(0.167231 -0.000433399 0)
(-0.0112217 0.00103552 -4.88712e-21)
(-0.0112312 0.00103944 -4.88361e-21)
(-0.0169608 0.00180898 8.11292e-22)
(-0.0170256 0.00182612 9.06355e-22)
(-0.020791 0.00258848 1.44545e-22)
(-0.0207812 0.0026103 1.30161e-22)
(-0.0193704 0.00279721 3.54618e-22)
(-0.0192808 0.00281604 3.3528e-22)
(-0.0153522 0.00260316 -1.44074e-22)
(-0.015178 0.00261519 -1.10794e-22)
(-0.00962084 0.0021036 2.8968e-22)
(-0.0018391 0.00126556 -6.01915e-22)
(-0.00127547 0.00123737 -6.58666e-22)
(0.0118977 -8.70035e-05 1.70648e-21)
(0.013295 -0.000187136 1.81164e-21)
(0.036195 -0.00163084 -7.18934e-22)
(0.0634811 -0.00268524 -2.21383e-22)
(0.0670995 -0.00273341 -2.94932e-22)
(0.0907852 -0.00311317 1.83682e-22)
(0.0938955 -0.00311591 1.63253e-22)
(0.110475 -0.00309229 -3.23002e-23)
(0.122797 -0.00289732 -4.93367e-24)
(0.12481 -0.00283439 3.88342e-25)
(0.134895 -0.00246955 3.25887e-24)
(0.143509 -0.00203005 3.94025e-24)
(0.145131 -0.00192941 2.28822e-24)
(0.152694 -0.00145651 -5.56782e-24)
(0.158612 -0.00105886 5.08447e-24)
(0.159805 -0.000974402 5.56399e-24)
(0.164367 -0.000650327 2.04359e-25)
(0.166619 -0.000498318 -5.33874e-26)
(0.167148 -0.000460606 -4.66292e-26)
(-0.0124064 0.000977762 -4.34766e-21)
(-0.0126837 0.00100611 -4.2082e-21)
(-0.0164194 0.00142429 -1.7146e-21)
(-0.017147 0.00150642 -1.24247e-21)
(-0.0211733 0.00209549 4.01583e-22)
(-0.0212644 0.00215231 3.95436e-22)
(-0.0202183 0.00235235 4.13524e-22)
(-0.0197466 0.00235247 1.91801e-22)
(-0.0162207 0.002209 -2.18424e-22)
(-0.0153308 0.00215742 -1.2559e-23)
(-0.0103164 0.0017653 4.05357e-22)
(-0.00887453 0.00163274 3.33477e-22)
(-0.00167799 0.000930473 -6.38739e-23)
(0.00968892 -0.00015636 5.18906e-22)
(0.0134385 -0.000495333 5.62469e-22)
(0.0335108 -0.0018362 -2.5286e-24)
(0.0575501 -0.00273924 1.27007e-22)
(0.065669 -0.00294778 1.30889e-22)
(0.0889593 -0.00325178 7.84161e-23)
(0.0938 -0.00327074 4.87611e-23)
(0.109963 -0.0032067 -4.44402e-23)
(0.121885 -0.00298407 -4.33994e-24)
(0.124509 -0.00291636 3.94313e-24)
(0.134636 -0.00253488 7.99318e-24)
(0.142961 -0.00207984 4.66229e-24)
(0.144901 -0.00197076 1.75306e-24)
(0.152611 -0.00147562 -4.66668e-25)
(0.158367 -0.00107778 3.71139e-24)
(0.159717 -0.000986504 2.73231e-24)
(0.164359 -0.000655875 2.83962e-25)
(0.166576 -0.000501915 -6.64127e-26)
(0.167156 -0.000463095 -6.71617e-26)
(-0.0152997 -0.000533844 -1.09396e-21)
(-0.0154385 -0.000540895 -1.06642e-21)
(-0.0193949 -0.000685744 -1.44975e-22)
(-0.0196076 -0.000697787 -1.54092e-22)
(-0.0222534 -0.000793079 2.49813e-22)
(-0.0221751 -0.000798782 2.60728e-22)
(-0.0195326 -0.000855873 -2.52352e-22)
(-0.019239 -0.000862441 -2.46263e-22)
(-0.0146318 -0.000997295 1.54454e-22)
(-0.0140956 -0.0010214 1.32595e-22)
(-0.00801358 -0.00133138 1.41563e-23)
(0.0002155 -0.00182666 1.19697e-22)
(0.00162207 -0.00191373 1.12805e-22)
(0.0143512 -0.00268524 5.64443e-23)
(0.0172764 -0.00285049 4.35158e-23)
(0.0370928 -0.00374475 1.48996e-23)
(0.0610266 -0.00426296 -7.04618e-23)
(0.0666952 -0.00431704 -4.8055e-23)
(0.0890727 -0.00424965 -4.85881e-23)
(0.0934448 -0.00417503 -3.72948e-23)
(0.109432 -0.0038169 5.76683e-24)
(0.121514 -0.00335923 3.03719e-24)
(0.123997 -0.00324009 8.03553e-25)
(0.134036 -0.00269945 -1.3452e-23)
(0.142581 -0.00214634 4.40629e-25)
(0.144454 -0.00201843 5.10938e-24)
(0.152196 -0.00148451 -3.55248e-24)
(0.158152 -0.00106782 5.71186e-25)
(0.159487 -0.000974685 1.02273e-24)
(0.164209 -0.000648811 -9.91209e-26)
(0.166514 -0.000489986 3.82524e-25)
(0.167097 -0.000451735 -8.24976e-27)
(-0.0154986 -0.000684897 -7.19001e-22)
(-0.0155669 -0.000688246 -7.12783e-22)
(-0.0198522 -0.00099015 -1.44374e-22)
(-0.0199743 -0.000999865 -1.49669e-22)
(-0.021982 -0.00112478 1.87774e-22)
(-0.0219264 -0.00113112 1.98059e-22)
(-0.0189766 -0.0012051 -2.013e-22)
(-0.0187857 -0.00121414 -2.02995e-22)
(-0.0139371 -0.00137158 1.30056e-22)
(-0.0135866 -0.00139408 1.21331e-22)
(-0.0071693 -0.00172336 2.41101e-23)
(0.00159965 -0.00223174 8.59628e-23)
(0.00266343 -0.00230935 8.34519e-23)
(0.0162018 -0.00306859 4.31289e-23)
(0.0184712 -0.00320684 2.69898e-23)
(0.0389532 -0.00403236 1.33089e-24)
(0.0632534 -0.00446554 -9.33883e-23)
(0.0677292 -0.00451444 -7.66201e-23)
(0.0899575 -0.00436828 -4.0086e-23)
(0.0937521 -0.00430744 -3.05145e-23)
(0.109667 -0.00389213 2.31535e-23)
(0.121809 -0.00338377 1.63626e-24)
(0.124073 -0.00327595 -9.25991e-25)
(0.13405 -0.00270468 -1.89187e-23)
(0.142715 -0.0021284 4.65296e-24)
(0.14445 -0.00200747 9.35352e-24)
(0.152158 -0.00146959 -8.41036e-24)
(0.158209 -0.00105257 1.20052e-24)
(0.159461 -0.000959376 1.98222e-24)
(0.164183 -0.000640577 -8.5647e-25)
(0.166524 -0.000484884 3.73968e-25)
(0.16708 -0.000442969 6.9674e-27)
(-0.0157542 -0.00191506 -2.5022e-25)
(-0.0159118 -0.00194644 -2.41492e-25)
(-0.0184361 -0.00255353 -1.28321e-25)
(-0.020057 -0.00291855 -7.15656e-26)
(-0.020478 -0.00345708 -1.62974e-23)
(-0.0197601 -0.00351216 -1.43473e-23)
(-0.0163269 -0.00363644 2.30683e-23)
(-0.0152069 -0.00368216 2.04294e-23)
(-0.0105279 -0.00388353 1.50086e-22)
(-0.00912971 -0.00395054 1.88029e-22)
(-0.00290922 -0.00426598 3.65006e-23)
(0.00472293 -0.00456603 1.97989e-23)
(0.00788201 -0.0047431 -1.84902e-22)
(0.0211118 -0.00513699 -7.66815e-23)
(0.0253079 -0.00526291 -2.98588e-23)
(0.0448205 -0.00570436 -2.45637e-23)
(0.0646376 -0.00563217 1.76179e-23)
(0.0721681 -0.0056494 -5.39904e-23)
(0.0923598 -0.00506631 -1.65352e-23)
(0.0963514 -0.00487832 1.36619e-23)
(0.111019 -0.00426235 1.07013e-22)
(0.121875 -0.00353744 -1.28507e-23)
(0.124346 -0.00336523 -3.80275e-23)
(0.134309 -0.00268905 -3.0968e-23)
(0.142427 -0.00205908 -3.18672e-24)
(0.144369 -0.00191129 8.53663e-24)
(0.152213 -0.00135555 -2.25896e-23)
(0.158003 -0.000960449 -8.91504e-24)
(0.159386 -0.000866938 -3.38584e-25)
(0.164167 -0.000576594 -2.04154e-24)